    1C
    1UUSER                                                              
    1UDATE              26.february.2026                                
    1UTIME              10:52:47                                        
    1UHOST                                                              
    1UPGM               CalculiX                                        
    1UVERSION           Version 2.23                             
    1UCOMPILETIME       Sun Oct 19 18:23:34 CEST 2025                    
    1UDIR                                                               
    1UDBN                                                               
    1UMAT    1STEEL                                                     
    2C                          6888                                     1
 -1      3281 2.49985E+00 2.99974E+00-1.94519E-02
 -1      3283 2.49896E+00 3.00026E+00-2.93979E-02
 -1      3284 2.49818E+00 3.00065E+00-2.92286E-02
 -1      3286 2.50063E+00 2.99935E+00-1.96212E-02
 -1      3295 2.00328E+00 2.99781E+00 3.07532E-03
 -1      3297 1.99672E+00 3.00219E+00-3.07532E-03
 -1      3298 2.00300E+00 2.99800E+00-3.46952E-03
 -1      3300 1.99700E+00 3.00200E+00 3.46952E-03
 -1      3309 3.28029E-03-2.18686E-03 3.07528E-03
 -1      3311-3.28029E-03 2.18686E-03-3.07528E-03
 -1      3312 2.99566E-03-1.99710E-03-3.46953E-03
 -1      3314-2.99566E-03 1.99710E-03 3.46953E-03
 -1      3323 9.99253E-01-2.63954E-04-4.38768E-02
 -1      3325 9.98359E-01 2.63954E-04-5.38228E-02
 -1      3326 9.97581E-01 6.51691E-04-5.36535E-02
 -1      3328 1.00003E+00-6.51691E-04-4.40461E-02
 -1      3337 2.48715E+00 2.99977E+00-1.83096E-02
 -1      3339 2.48637E+00 3.00023E+00-2.82683E-02
 -1      3340 2.47430E+00 2.99985E+00-1.76078E-02
 -1      3342 2.47386E+00 3.00015E+00-2.75937E-02
 -1      3343 2.46146E+00 2.99993E+00-1.73120E-02
 -1      3345 2.46132E+00 3.00007E+00-2.73099E-02
 -1      3346 2.44865E+00 2.99999E+00-1.73402E-02
 -1      3348 2.44874E+00 3.00001E+00-2.73398E-02
 -1      3349 2.43586E+00 3.00004E+00-1.76321E-02
 -1      3351 2.43614E+00 2.99996E+00-2.76278E-02
 -1      3352 2.42309E+00 3.00008E+00-1.81366E-02
 -1      3354 2.42353E+00 2.99992E+00-2.81257E-02
 -1      3355 2.41035E+00 3.00011E+00-1.88136E-02
 -1      3357 2.41092E+00 2.99989E+00-2.87951E-02
 -1      3358 2.39763E+00 3.00014E+00-1.96322E-02
 -1      3360 2.39830E+00 2.99986E+00-2.96057E-02
 -1      3361 2.38492E+00 3.00016E+00-2.05682E-02
 -1      3363 2.38568E+00 2.99984E+00-3.05340E-02
 -1      3364 2.37223E+00 3.00018E+00-2.16038E-02
 -1      3366 2.37307E+00 2.99982E+00-3.15624E-02
 -1      3367 2.35956E+00 3.00020E+00-2.27196E-02
 -1      3369 2.36045E+00 2.99980E+00-3.26721E-02
 -1      3370 2.34690E+00 3.00021E+00-2.38906E-02
 -1      3372 2.34782E+00 2.99979E+00-3.38387E-02
 -1      3373 2.33425E+00 3.00021E+00-2.50935E-02
 -1      3375 2.33520E+00 2.99979E+00-3.50392E-02
 -1      3376 2.32161E+00 3.00021E+00-2.63066E-02
 -1      3378 2.32256E+00 2.99979E+00-3.62519E-02
 -1      3379 2.30897E+00 3.00021E+00-2.75091E-02
 -1      3381 2.30991E+00 2.99979E+00-3.74560E-02
 -1      3382 2.29635E+00 3.00020E+00-2.86810E-02
 -1      3384 2.29726E+00 2.99980E+00-3.86312E-02
 -1      3385 2.28372E+00 3.00019E+00-2.98019E-02
 -1      3387 2.28459E+00 2.99981E+00-3.97572E-02
 -1      3388 2.27110E+00 3.00017E+00-3.08491E-02
 -1      3390 2.27190E+00 2.99983E+00-4.08111E-02
 -1      3391 2.25849E+00 3.00015E+00-3.17961E-02
 -1      3393 2.25920E+00 2.99985E+00-4.17662E-02
 -1      3394 2.24587E+00 3.00011E+00-3.26110E-02
 -1      3396 2.24647E+00 2.99989E+00-4.25904E-02
 -1      3397 2.23326E+00 3.00007E+00-3.32575E-02
 -1      3399 2.23372E+00 2.99993E+00-4.32460E-02
 -1      3400 2.22066E+00 3.00002E+00-3.37007E-02
 -1      3402 2.22095E+00 2.99998E+00-4.36964E-02
 -1      3403 2.20806E+00 2.99996E+00-3.39102E-02
 -1      3405 2.20816E+00 3.00004E+00-4.39094E-02
 -1      3406 2.19547E+00 2.99990E+00-3.38632E-02
 -1      3408 2.19536E+00 3.00010E+00-4.38607E-02
 -1      3409 2.18289E+00 2.99984E+00-3.35467E-02
 -1      3411 2.18256E+00 3.00016E+00-4.35362E-02
 -1      3412 2.17031E+00 2.99977E+00-3.29622E-02
 -1      3414 2.16977E+00 3.00023E+00-4.29378E-02
 -1      3415 2.15774E+00 2.99972E+00-3.21249E-02
 -1      3417 2.15701E+00 3.00028E+00-4.20824E-02
 -1      3418 2.14517E+00 2.99966E+00-3.10631E-02
 -1      3420 2.14428E+00 3.00034E+00-4.10006E-02
 -1      3421 2.13261E+00 2.99962E+00-2.98101E-02
 -1      3423 2.13157E+00 3.00038E+00-3.97272E-02
 -1      3424 2.12006E+00 2.99958E+00-2.83889E-02
 -1      3426 2.11889E+00 3.00042E+00-3.82849E-02
 -1      3427 2.10753E+00 2.99954E+00-2.68048E-02
 -1      3429 2.10623E+00 3.00046E+00-3.66774E-02
 -1      3430 2.09502E+00 2.99950E+00-2.50519E-02
 -1      3432 2.09359E+00 3.00050E+00-3.48971E-02
 -1      3433 2.08255E+00 2.99945E+00-2.31141E-02
 -1      3435 2.08097E+00 3.00055E+00-3.29257E-02
 -1      3436 2.07013E+00 2.99939E+00-2.09705E-02
 -1      3438 2.06837E+00 3.00061E+00-3.07396E-02
 -1      3439 2.05777E+00 2.99933E+00-1.85851E-02
 -1      3441 2.05581E+00 3.00067E+00-2.82972E-02
 -1      3442 2.04550E+00 2.99924E+00-1.59044E-02
 -1      3444 2.04327E+00 3.00076E+00-2.55348E-02
 -1      3445 2.03338E+00 2.99912E+00-1.28385E-02
 -1      3447 2.03079E+00 3.00088E+00-2.23350E-02
 -1      3448 2.02157E+00 2.99892E+00-9.20717E-03
 -1      3450 2.01836E+00 3.00108E+00-1.84285E-02
 -1      3451 2.01019E+00 2.99873E+00-4.39778E-03
 -1      3453 2.00640E+00 3.00127E+00-1.32953E-02
 -1      3454 2.01157E+00 2.99781E+00-5.77118E-03
 -1      3456 2.00501E+00 3.00219E+00-1.19219E-02
 -1      3465 5.32803E-02 7.28131E-02 3.07528E-03
 -1      3467 4.67197E-02 7.71869E-02-3.07528E-03
 -1      3468 5.29957E-02 7.30029E-02-3.46953E-03
 -1      3470 4.70043E-02 7.69971E-02 3.46953E-03
 -1      3479 1.03280E-01 1.47813E-01 3.07528E-03
 -1      3481 9.67197E-02 1.52187E-01-3.07528E-03
 -1      3482 1.02996E-01 1.48003E-01-3.46953E-03
 -1      3484 9.70043E-02 1.51997E-01 3.46953E-03
 -1      3493 1.53280E-01 2.22813E-01 3.07528E-03
 -1      3495 1.46720E-01 2.27187E-01-3.07528E-03
 -1      3496 1.52996E-01 2.23003E-01-3.46953E-03
 -1      3498 1.47004E-01 2.26997E-01 3.46953E-03
 -1      3507 2.03280E-01 2.97813E-01 3.07528E-03
 -1      3509 1.96720E-01 3.02187E-01-3.07528E-03
 -1      3510 2.02996E-01 2.98003E-01-3.46952E-03
 -1      3512 1.97004E-01 3.01997E-01 3.46952E-03
 -1      3521 2.53280E-01 3.72813E-01 3.07528E-03
 -1      3523 2.46720E-01 3.77187E-01-3.07528E-03
 -1      3524 2.52996E-01 3.73003E-01-3.46952E-03
 -1      3526 2.47004E-01 3.76997E-01 3.46952E-03
 -1      3535 3.03280E-01 4.47813E-01 3.07528E-03
 -1      3537 2.96720E-01 4.52187E-01-3.07528E-03
 -1      3538 3.02996E-01 4.48003E-01-3.46952E-03
 -1      3540 2.97004E-01 4.51997E-01 3.46952E-03
 -1      3549 3.53280E-01 5.22813E-01 3.07528E-03
 -1      3551 3.46720E-01 5.27187E-01-3.07528E-03
 -1      3552 3.52996E-01 5.23003E-01-3.46952E-03
 -1      3554 3.47004E-01 5.26997E-01 3.46952E-03
 -1      3563 4.03280E-01 5.97813E-01 3.07528E-03
 -1      3565 3.96720E-01 6.02187E-01-3.07528E-03
 -1      3566 4.02996E-01 5.98003E-01-3.46952E-03
 -1      3568 3.97004E-01 6.01997E-01 3.46952E-03
 -1      3577 4.53280E-01 6.72813E-01 3.07528E-03
 -1      3579 4.46720E-01 6.77187E-01-3.07528E-03
 -1      3580 4.52996E-01 6.73003E-01-3.46952E-03
 -1      3582 4.47004E-01 6.76997E-01 3.46952E-03
 -1      3591 5.03280E-01 7.47813E-01 3.07528E-03
 -1      3593 4.96720E-01 7.52187E-01-3.07528E-03
 -1      3594 5.02996E-01 7.48003E-01-3.46952E-03
 -1      3596 4.97004E-01 7.51997E-01 3.46952E-03
 -1      3605 5.53280E-01 8.22813E-01 3.07528E-03
 -1      3607 5.46720E-01 8.27187E-01-3.07528E-03
 -1      3608 5.52996E-01 8.23003E-01-3.46952E-03
 -1      3610 5.47004E-01 8.26997E-01 3.46952E-03
 -1      3619 6.03280E-01 8.97813E-01 3.07528E-03
 -1      3621 5.96720E-01 9.02187E-01-3.07528E-03
 -1      3622 6.02996E-01 8.98003E-01-3.46953E-03
 -1      3624 5.97004E-01 9.01997E-01 3.46953E-03
 -1      3633 6.53280E-01 9.72813E-01 3.07528E-03
 -1      3635 6.46720E-01 9.77187E-01-3.07528E-03
 -1      3636 6.52996E-01 9.73003E-01-3.46953E-03
 -1      3638 6.47004E-01 9.76997E-01 3.46953E-03
 -1      3647 7.03280E-01 1.04781E+00 3.07528E-03
 -1      3649 6.96720E-01 1.05219E+00-3.07528E-03
 -1      3650 7.02996E-01 1.04800E+00-3.46953E-03
 -1      3652 6.97004E-01 1.05200E+00 3.46953E-03
 -1      3661 7.53280E-01 1.12281E+00 3.07528E-03
 -1      3663 7.46720E-01 1.12719E+00-3.07528E-03
 -1      3664 7.52996E-01 1.12300E+00-3.46952E-03
 -1      3666 7.47004E-01 1.12700E+00 3.46952E-03
 -1      3675 8.03280E-01 1.19781E+00 3.07528E-03
 -1      3677 7.96720E-01 1.20219E+00-3.07528E-03
 -1      3678 8.02996E-01 1.19800E+00-3.46952E-03
 -1      3680 7.97004E-01 1.20200E+00 3.46952E-03
 -1      3689 8.53280E-01 1.27281E+00 3.07528E-03
 -1      3691 8.46720E-01 1.27719E+00-3.07528E-03
 -1      3692 8.52996E-01 1.27300E+00-3.46952E-03
 -1      3694 8.47004E-01 1.27700E+00 3.46952E-03
 -1      3703 9.03280E-01 1.34781E+00 3.07528E-03
 -1      3705 8.96720E-01 1.35219E+00-3.07528E-03
 -1      3706 9.02996E-01 1.34800E+00-3.46952E-03
 -1      3708 8.97004E-01 1.35200E+00 3.46952E-03
 -1      3717 9.53280E-01 1.42281E+00 3.07528E-03
 -1      3719 9.46720E-01 1.42719E+00-3.07528E-03
 -1      3720 9.52996E-01 1.42300E+00-3.46953E-03
 -1      3722 9.47004E-01 1.42700E+00 3.46953E-03
 -1      3731 1.00328E+00 1.49781E+00 3.07532E-03
 -1      3733 9.96720E-01 1.50219E+00-3.07532E-03
 -1      3734 1.00300E+00 1.49800E+00-3.46956E-03
 -1      3736 9.97004E-01 1.50200E+00 3.46956E-03
 -1      3745 1.05328E+00 1.57281E+00 3.07527E-03
 -1      3747 1.04672E+00 1.57719E+00-3.07527E-03
 -1      3748 1.05300E+00 1.57300E+00-3.46955E-03
 -1      3750 1.04700E+00 1.57700E+00 3.46955E-03
 -1      3759 1.10328E+00 1.64781E+00 3.07527E-03
 -1      3761 1.09672E+00 1.65219E+00-3.07527E-03
 -1      3762 1.10300E+00 1.64800E+00-3.46950E-03
 -1      3764 1.09700E+00 1.65200E+00 3.46950E-03
 -1      3773 1.15328E+00 1.72281E+00 3.07533E-03
 -1      3775 1.14672E+00 1.72719E+00-3.07533E-03
 -1      3776 1.15300E+00 1.72300E+00-3.46954E-03
 -1      3778 1.14700E+00 1.72700E+00 3.46954E-03
 -1      3787 1.20328E+00 1.79781E+00 3.07528E-03
 -1      3789 1.19672E+00 1.80219E+00-3.07528E-03
 -1      3790 1.20300E+00 1.79800E+00-3.46954E-03
 -1      3792 1.19700E+00 1.80200E+00 3.46954E-03
 -1      3801 1.25328E+00 1.87281E+00 3.07528E-03
 -1      3803 1.24672E+00 1.87719E+00-3.07528E-03
 -1      3804 1.25300E+00 1.87300E+00-3.46948E-03
 -1      3806 1.24700E+00 1.87700E+00 3.46948E-03
 -1      3815 1.30328E+00 1.94781E+00 3.07534E-03
 -1      3817 1.29672E+00 1.95219E+00-3.07534E-03
 -1      3818 1.30300E+00 1.94800E+00-3.46952E-03
 -1      3820 1.29700E+00 1.95200E+00 3.46952E-03
 -1      3829 1.35328E+00 2.02281E+00 3.07529E-03
 -1      3831 1.34672E+00 2.02719E+00-3.07529E-03
 -1      3832 1.35300E+00 2.02300E+00-3.46952E-03
 -1      3834 1.34700E+00 2.02700E+00 3.46952E-03
 -1      3843 1.40328E+00 2.09781E+00 3.07529E-03
 -1      3845 1.39672E+00 2.10219E+00-3.07529E-03
 -1      3846 1.40300E+00 2.09800E+00-3.46946E-03
 -1      3848 1.39700E+00 2.10200E+00 3.46946E-03
 -1      3857 1.45328E+00 2.17281E+00 3.07523E-03
 -1      3859 1.44672E+00 2.17719E+00-3.07523E-03
 -1      3860 1.45300E+00 2.17300E+00-3.46950E-03
 -1      3862 1.44700E+00 2.17700E+00 3.46950E-03
 -1      3871 1.50328E+00 2.24781E+00 3.07523E-03
 -1      3873 1.49672E+00 2.25219E+00-3.07523E-03
 -1      3874 1.50300E+00 2.24800E+00-3.46955E-03
 -1      3876 1.49700E+00 2.25200E+00 3.46955E-03
 -1      3885 1.55328E+00 2.32281E+00 3.07530E-03
 -1      3887 1.54672E+00 2.32719E+00-3.07530E-03
 -1      3888 1.55300E+00 2.32300E+00-3.46954E-03
 -1      3890 1.54700E+00 2.32700E+00 3.46954E-03
 -1      3899 1.60328E+00 2.39781E+00 3.07524E-03
 -1      3901 1.59672E+00 2.40219E+00-3.07524E-03
 -1      3902 1.60300E+00 2.39800E+00-3.46948E-03
 -1      3904 1.59700E+00 2.40200E+00 3.46948E-03
 -1      3913 1.65328E+00 2.47281E+00 3.07524E-03
 -1      3915 1.64672E+00 2.47719E+00-3.07524E-03
 -1      3916 1.65300E+00 2.47300E+00-3.46953E-03
 -1      3918 1.64700E+00 2.47700E+00 3.46953E-03
 -1      3927 1.70328E+00 2.54781E+00 3.07531E-03
 -1      3929 1.69672E+00 2.55219E+00-3.07531E-03
 -1      3930 1.70300E+00 2.54800E+00-3.46952E-03
 -1      3932 1.69700E+00 2.55200E+00 3.46952E-03
 -1      3941 1.75328E+00 2.62281E+00 3.07525E-03
 -1      3943 1.74672E+00 2.62719E+00-3.07525E-03
 -1      3944 1.75300E+00 2.62300E+00-3.46945E-03
 -1      3946 1.74700E+00 2.62700E+00 3.46945E-03
 -1      3955 1.80328E+00 2.69781E+00 3.07524E-03
 -1      3957 1.79672E+00 2.70219E+00-3.07524E-03
 -1      3958 1.80300E+00 2.69800E+00-3.46951E-03
 -1      3960 1.79700E+00 2.70200E+00 3.46951E-03
 -1      3969 1.85328E+00 2.77281E+00 3.07532E-03
 -1      3971 1.84672E+00 2.77719E+00-3.07532E-03
 -1      3972 1.85300E+00 2.77300E+00-3.46956E-03
 -1      3974 1.84700E+00 2.77700E+00 3.46956E-03
 -1      3983 1.90328E+00 2.84781E+00 3.07525E-03
 -1      3985 1.89672E+00 2.85219E+00-3.07525E-03
 -1      3986 1.90300E+00 2.84800E+00-3.46955E-03
 -1      3988 1.89700E+00 2.85200E+00 3.46955E-03
 -1      3997 1.95328E+00 2.92281E+00 3.07525E-03
 -1      3999 1.94672E+00 2.92719E+00-3.07525E-03
 -1      4000 1.95300E+00 2.92300E+00-3.46948E-03
 -1      4002 1.94700E+00 2.92700E+00 3.46948E-03
 -1      4011 9.73846E-01-2.04932E-04-4.15930E-02
 -1      4013 9.73187E-01 2.04932E-04-5.15628E-02
 -1      4014 9.48330E-01-1.22267E-04-4.02057E-02
 -1      4016 9.47997E-01 1.22267E-04-5.01972E-02
 -1      4017 9.22809E-01-5.27792E-05-3.96223E-02
 -1      4019 9.22748E-01 5.27792E-05-4.96215E-02
 -1      4020 8.97306E-01 4.11279E-06-3.96807E-02
 -1      4022 8.97466E-01-4.11279E-06-4.96794E-02
 -1      4023 8.71831E-01 5.07460E-05-4.02631E-02
 -1      4025 8.72171E-01-5.07460E-05-5.02568E-02
 -1      4026 8.46386E-01 8.89504E-05-4.12689E-02
 -1      4028 8.46871E-01-8.89504E-05-5.12556E-02
 -1      4029 8.20970E-01 1.20500E-04-4.26193E-02
 -1      4031 8.21574E-01-1.20500E-04-5.25981E-02
 -1      4032 7.95581E-01 1.46801E-04-4.42525E-02
 -1      4034 7.96284E-01-1.46801E-04-5.42235E-02
 -1      4035 7.70215E-01 1.69126E-04-4.61206E-02
 -1      4037 7.71002E-01-1.69126E-04-5.60839E-02
 -1      4038 7.44873E-01 1.87680E-04-4.81878E-02
 -1      4040 7.45727E-01-1.87680E-04-5.81442E-02
 -1      4041 7.19553E-01 2.01475E-04-5.04161E-02
 -1      4043 7.20458E-01-2.01475E-04-6.03669E-02
 -1      4044 6.94253E-01 2.10247E-04-5.27555E-02
 -1      4046 6.95190E-01-2.10247E-04-6.27027E-02
 -1      4047 6.68967E-01 2.14256E-04-5.51598E-02
 -1      4049 6.69918E-01-2.14256E-04-6.51052E-02
 -1      4050 6.43692E-01 2.13673E-04-5.75855E-02
 -1      4052 6.44641E-01-2.13673E-04-6.75312E-02
 -1      4053 6.18423E-01 2.08561E-04-5.99912E-02
 -1      4055 6.19354E-01-2.08561E-04-6.99390E-02
 -1      4056 5.93156E-01 1.98887E-04-6.23364E-02
 -1      4058 5.94053E-01-1.98887E-04-7.22881E-02
 -1      4059 5.67889E-01 1.84221E-04-6.45804E-02
 -1      4061 5.68735E-01-1.84221E-04-7.45377E-02
 -1      4062 5.42619E-01 1.63702E-04-6.66779E-02
 -1      4064 5.43394E-01-1.63702E-04-7.66425E-02
 -1      4065 5.17346E-01 1.36131E-04-6.85757E-02
 -1      4067 5.18026E-01-1.36131E-04-7.85488E-02
 -1      4068 4.92068E-01 1.00242E-04-7.02101E-02
 -1      4070 4.92625E-01-1.00242E-04-8.01926E-02
 -1      4071 4.66785E-01 5.56954E-05-7.15080E-02
 -1      4073 4.67191E-01-5.56954E-05-8.14991E-02
 -1      4074 4.41497E-01 3.20205E-06-7.23984E-02
 -1      4076 4.41726E-01-3.20205E-06-8.23958E-02
 -1      4077 4.16208E-01-5.57869E-05-7.28200E-02
 -1      4079 4.16238E-01 5.57869E-05-8.28193E-02
 -1      4080 3.90922E-01-1.19114E-04-7.27261E-02
 -1      4082 3.90741E-01 1.19114E-04-8.27216E-02
 -1      4083 3.65645E-01-1.83619E-04-7.20902E-02
 -1      4085 3.65250E-01 1.83619E-04-8.20757E-02
 -1      4086 3.40383E-01-2.45747E-04-7.09150E-02
 -1      4088 3.39784E-01 2.45747E-04-8.08849E-02
 -1      4089 3.15139E-01-3.02161E-04-6.92318E-02
 -1      4091 3.14356E-01 3.02161E-04-7.91827E-02
 -1      4092 2.89917E-01-3.51031E-04-6.70985E-02
 -1      4094 2.88975E-01 3.51031E-04-7.70292E-02
 -1      4095 2.64720E-01-3.93686E-04-6.45822E-02
 -1      4097 2.63640E-01 3.93686E-04-7.44925E-02
 -1      4098 2.39555E-01-4.33947E-04-6.17295E-02
 -1      4100 2.38345E-01 4.33947E-04-7.16181E-02
 -1      4101 2.14429E-01-4.75144E-04-5.85503E-02
 -1      4103 2.13089E-01 4.75144E-04-6.84144E-02
 -1      4104 1.89355E-01-5.19863E-04-5.50317E-02
 -1      4106 1.87873E-01 5.19863E-04-6.48665E-02
 -1      4107 1.64344E-01-5.69838E-04-5.11407E-02
 -1      4109 1.62705E-01 5.69838E-04-6.09393E-02
 -1      4110 1.39415E-01-6.28140E-04-4.68340E-02
 -1      4112 1.37594E-01 6.28140E-04-5.65861E-02
 -1      4113 1.14597E-01-6.99366E-04-4.20379E-02
 -1      4115 1.12554E-01 6.99366E-04-5.17267E-02
 -1      4116 8.99394E-02-7.92568E-04-3.66422E-02
 -1      4118 8.76094E-02 7.92568E-04-4.62369E-02
 -1      4119 6.55457E-02-9.30666E-04-3.04575E-02
 -1      4121 6.27925E-02 9.30666E-04-3.98891E-02
 -1      4122 4.16776E-02-1.17672E-03-2.31026E-02
 -1      4124 3.81751E-02 1.17672E-03-3.21687E-02
 -1      4125 1.84828E-02-1.27134E-03-1.32446E-02
 -1      4127 1.46925E-02 1.27134E-03-2.21422E-02
 -1      4128 1.98679E-02-2.18686E-03-1.46181E-02
 -1      4130 1.33074E-02 2.18686E-03-2.07687E-02
 -1      4139 1.03677E+00 7.47360E-02-4.32661E-02
 -1      4141 1.03587E+00 7.52640E-02-5.32122E-02
 -1      4142 1.03510E+00 7.56517E-02-5.30428E-02
 -1      4144 1.03755E+00 7.43483E-02-4.34355E-02
 -1      4153 1.07428E+00 1.49736E-01-4.26555E-02
 -1      4155 1.07339E+00 1.50264E-01-5.26015E-02
 -1      4156 1.07261E+00 1.50652E-01-5.24322E-02
 -1      4158 1.07506E+00 1.49348E-01-4.28248E-02
 -1      4167 1.11180E+00 2.24736E-01-4.20449E-02
 -1      4169 1.11090E+00 2.25264E-01-5.19909E-02
 -1      4170 1.11013E+00 2.25652E-01-5.18216E-02
 -1      4172 1.11258E+00 2.24348E-01-4.22142E-02
 -1      4181 1.14931E+00 2.99736E-01-4.14343E-02
 -1      4183 1.14842E+00 3.00264E-01-5.13803E-02
 -1      4184 1.14764E+00 3.00652E-01-5.12110E-02
 -1      4186 1.15009E+00 2.99348E-01-4.16036E-02
 -1      4195 1.18683E+00 3.74736E-01-4.08237E-02
 -1      4197 1.18593E+00 3.75264E-01-5.07697E-02
 -1      4198 1.18516E+00 3.75652E-01-5.06004E-02
 -1      4200 1.18761E+00 3.74348E-01-4.09930E-02
 -1      4209 1.22434E+00 4.49736E-01-4.02130E-02
 -1      4211 1.22345E+00 4.50264E-01-5.01590E-02
 -1      4212 1.22267E+00 4.50652E-01-4.99897E-02
 -1      4214 1.22512E+00 4.49348E-01-4.03823E-02
 -1      4223 1.26186E+00 5.24736E-01-3.96024E-02
 -1      4225 1.26096E+00 5.25264E-01-4.95484E-02
 -1      4226 1.26019E+00 5.25652E-01-4.93791E-02
 -1      4228 1.26264E+00 5.24348E-01-3.97717E-02
 -1      4237 1.29937E+00 5.99736E-01-3.89918E-02
 -1      4239 1.29848E+00 6.00264E-01-4.89378E-02
 -1      4240 1.29770E+00 6.00652E-01-4.87685E-02
 -1      4242 1.30015E+00 5.99348E-01-3.91611E-02
 -1      4251 1.33689E+00 6.74736E-01-3.83812E-02
 -1      4253 1.33599E+00 6.75264E-01-4.83272E-02
 -1      4254 1.33522E+00 6.75652E-01-4.81579E-02
 -1      4256 1.33766E+00 6.74348E-01-3.85505E-02
 -1      4265 1.37440E+00 7.49736E-01-3.77706E-02
 -1      4267 1.37351E+00 7.50264E-01-4.77166E-02
 -1      4268 1.37273E+00 7.50652E-01-4.75472E-02
 -1      4270 1.37518E+00 7.49348E-01-3.79399E-02
 -1      4279 1.41192E+00 8.24736E-01-3.71599E-02
 -1      4281 1.41102E+00 8.25264E-01-4.71059E-02
 -1      4282 1.41025E+00 8.25652E-01-4.69366E-02
 -1      4284 1.41269E+00 8.24348E-01-3.73292E-02
 -1      4293 1.44943E+00 8.99736E-01-3.65493E-02
 -1      4295 1.44854E+00 9.00264E-01-4.64953E-02
 -1      4296 1.44776E+00 9.00652E-01-4.63260E-02
 -1      4298 1.45021E+00 8.99348E-01-3.67186E-02
 -1      4307 1.48695E+00 9.74736E-01-3.59387E-02
 -1      4309 1.48605E+00 9.75264E-01-4.58847E-02
 -1      4310 1.48528E+00 9.75652E-01-4.57154E-02
 -1      4312 1.48772E+00 9.74348E-01-3.61080E-02
 -1      4321 1.52446E+00 1.04974E+00-3.53281E-02
 -1      4323 1.52357E+00 1.05026E+00-4.52741E-02
 -1      4324 1.52279E+00 1.05065E+00-4.51048E-02
 -1      4326 1.52524E+00 1.04935E+00-3.54974E-02
 -1      4335 1.56198E+00 1.12474E+00-3.47174E-02
 -1      4337 1.56108E+00 1.12526E+00-4.46634E-02
 -1      4338 1.56031E+00 1.12565E+00-4.44941E-02
 -1      4340 1.56275E+00 1.12435E+00-3.48867E-02
 -1      4349 1.59949E+00 1.19974E+00-3.41068E-02
 -1      4351 1.59860E+00 1.20026E+00-4.40528E-02
 -1      4352 1.59782E+00 1.20065E+00-4.38835E-02
 -1      4354 1.60027E+00 1.19935E+00-3.42761E-02
 -1      4363 1.63701E+00 1.27474E+00-3.34962E-02
 -1      4365 1.63611E+00 1.27526E+00-4.34422E-02
 -1      4366 1.63534E+00 1.27565E+00-4.32729E-02
 -1      4368 1.63778E+00 1.27435E+00-3.36655E-02
 -1      4377 1.67452E+00 1.34974E+00-3.28856E-02
 -1      4379 1.67363E+00 1.35026E+00-4.28316E-02
 -1      4380 1.67285E+00 1.35065E+00-4.26623E-02
 -1      4382 1.67530E+00 1.34935E+00-3.30549E-02
 -1      4391 1.71204E+00 1.42474E+00-3.22750E-02
 -1      4393 1.71114E+00 1.42526E+00-4.22210E-02
 -1      4394 1.71037E+00 1.42565E+00-4.20517E-02
 -1      4396 1.71281E+00 1.42435E+00-3.24442E-02
 -1      4405 1.74955E+00 1.49974E+00-3.16643E-02
 -1      4407 1.74866E+00 1.50026E+00-4.16103E-02
 -1      4408 1.74788E+00 1.50065E+00-4.14410E-02
 -1      4410 1.75033E+00 1.49935E+00-3.18336E-02
 -1      4419 1.78707E+00 1.57474E+00-3.10537E-02
 -1      4421 1.78617E+00 1.57526E+00-4.09997E-02
 -1      4422 1.78539E+00 1.57565E+00-4.08304E-02
 -1      4424 1.78784E+00 1.57435E+00-3.12230E-02
 -1      4433 1.82458E+00 1.64974E+00-3.04431E-02
 -1      4435 1.82369E+00 1.65026E+00-4.03891E-02
 -1      4436 1.82291E+00 1.65065E+00-4.02198E-02
 -1      4438 1.82536E+00 1.64935E+00-3.06124E-02
 -1      4447 1.86210E+00 1.72474E+00-2.98325E-02
 -1      4449 1.86120E+00 1.72526E+00-3.97785E-02
 -1      4450 1.86042E+00 1.72565E+00-3.96091E-02
 -1      4452 1.86287E+00 1.72435E+00-3.00018E-02
 -1      4461 1.89961E+00 1.79974E+00-2.92218E-02
 -1      4463 1.89872E+00 1.80026E+00-3.91678E-02
 -1      4464 1.89794E+00 1.80065E+00-3.89985E-02
 -1      4466 1.90039E+00 1.79935E+00-2.93911E-02
 -1      4475 1.93713E+00 1.87474E+00-2.86112E-02
 -1      4477 1.93623E+00 1.87526E+00-3.85572E-02
 -1      4478 1.93545E+00 1.87565E+00-3.83879E-02
 -1      4480 1.93790E+00 1.87435E+00-2.87805E-02
 -1      4489 1.97464E+00 1.94974E+00-2.80006E-02
 -1      4491 1.97375E+00 1.95026E+00-3.79466E-02
 -1      4492 1.97297E+00 1.95065E+00-3.77773E-02
 -1      4494 1.97542E+00 1.94935E+00-2.81699E-02
 -1      4503 2.01216E+00 2.02474E+00-2.73900E-02
 -1      4505 2.01126E+00 2.02526E+00-3.73360E-02
 -1      4506 2.01048E+00 2.02565E+00-3.71667E-02
 -1      4508 2.01293E+00 2.02435E+00-2.75593E-02
 -1      4517 2.04967E+00 2.09974E+00-2.67793E-02
 -1      4519 2.04878E+00 2.10026E+00-3.67253E-02
 -1      4520 2.04800E+00 2.10065E+00-3.65561E-02
 -1      4522 2.05045E+00 2.09935E+00-2.69486E-02
 -1      4531 2.08719E+00 2.17474E+00-2.61687E-02
 -1      4533 2.08629E+00 2.17526E+00-3.61147E-02
 -1      4534 2.08551E+00 2.17565E+00-3.59454E-02
 -1      4536 2.08796E+00 2.17435E+00-2.63380E-02
 -1      4545 2.12470E+00 2.24974E+00-2.55581E-02
 -1      4547 2.12381E+00 2.25026E+00-3.55041E-02
 -1      4548 2.12303E+00 2.25065E+00-3.53348E-02
 -1      4550 2.12548E+00 2.24935E+00-2.57274E-02
 -1      4559 2.16222E+00 2.32474E+00-2.49475E-02
 -1      4561 2.16132E+00 2.32526E+00-3.48935E-02
 -1      4562 2.16054E+00 2.32565E+00-3.47242E-02
 -1      4564 2.16299E+00 2.32435E+00-2.51168E-02
 -1      4573 2.19973E+00 2.39974E+00-2.43369E-02
 -1      4575 2.19884E+00 2.40026E+00-3.42829E-02
 -1      4576 2.19806E+00 2.40065E+00-3.41136E-02
 -1      4578 2.20051E+00 2.39935E+00-2.45061E-02
 -1      4587 2.23725E+00 2.47474E+00-2.37262E-02
 -1      4589 2.23635E+00 2.47526E+00-3.36722E-02
 -1      4590 2.23557E+00 2.47565E+00-3.35030E-02
 -1      4592 2.23802E+00 2.47435E+00-2.38955E-02
 -1      4601 2.27476E+00 2.54974E+00-2.31156E-02
 -1      4603 2.27387E+00 2.55026E+00-3.30616E-02
 -1      4604 2.27309E+00 2.55065E+00-3.28923E-02
 -1      4606 2.27554E+00 2.54935E+00-2.32849E-02
 -1      4615 2.31227E+00 2.62474E+00-2.25050E-02
 -1      4617 2.31138E+00 2.62526E+00-3.24510E-02
 -1      4618 2.31060E+00 2.62565E+00-3.22817E-02
 -1      4620 2.31305E+00 2.62435E+00-2.26743E-02
 -1      4629 2.34979E+00 2.69974E+00-2.18944E-02
 -1      4631 2.34890E+00 2.70026E+00-3.18404E-02
 -1      4632 2.34812E+00 2.70065E+00-3.16711E-02
 -1      4634 2.35057E+00 2.69935E+00-2.20637E-02
 -1      4643 2.38730E+00 2.77474E+00-2.12837E-02
 -1      4645 2.38641E+00 2.77526E+00-3.12298E-02
 -1      4646 2.38563E+00 2.77565E+00-3.10604E-02
 -1      4648 2.38808E+00 2.77435E+00-2.14531E-02
 -1      4657 2.42482E+00 2.84974E+00-2.06731E-02
 -1      4659 2.42393E+00 2.85026E+00-3.06191E-02
 -1      4660 2.42315E+00 2.85065E+00-3.04498E-02
 -1      4662 2.42560E+00 2.84935E+00-2.08424E-02
 -1      4671 2.46233E+00 2.92474E+00-2.00625E-02
 -1      4673 2.46144E+00 2.92526E+00-3.00085E-02
 -1      4674 2.46066E+00 2.92565E+00-2.98392E-02
 -1      4676 2.46311E+00 2.92435E+00-2.02318E-02
 -1      4685 2.01217E+00 2.99800E+00 4.44983E-03
 -1      4687 2.00618E+00 3.00200E+00 1.13888E-02
 -1      4688 2.01059E+00 2.99905E+00 3.22055E-03
 -1      4690 2.00775E+00 3.00095E+00 1.26181E-02
 -1      4699 2.02260E+00 2.99914E+00 6.83155E-03
 -1      4701 2.02005E+00 3.00086E+00 1.63451E-02
 -1      4702 2.03469E+00 2.99938E+00 9.25235E-03
 -1      4704 2.03286E+00 3.00062E+00 1.90041E-02
 -1      4705 2.04704E+00 2.99951E+00 1.11567E-02
 -1      4707 2.04562E+00 3.00049E+00 2.10057E-02
 -1      4708 2.05951E+00 2.99960E+00 1.26866E-02
 -1      4710 2.05837E+00 3.00040E+00 2.25890E-02
 -1      4711 2.07204E+00 2.99967E+00 1.39255E-02
 -1      4713 2.07112E+00 3.00033E+00 2.38614E-02
 -1      4714 2.08462E+00 2.99973E+00 1.49225E-02
 -1      4716 2.08388E+00 3.00027E+00 2.48808E-02
 -1      4717 2.09722E+00 2.99978E+00 1.57108E-02
 -1      4719 2.09664E+00 3.00022E+00 2.56846E-02
 -1      4720 2.10984E+00 2.99983E+00 1.63176E-02
 -1      4722 2.10940E+00 3.00017E+00 2.63020E-02
 -1      4723 2.12248E+00 2.99987E+00 1.67617E-02
 -1      4725 2.12217E+00 3.00013E+00 2.67532E-02
 -1      4726 2.13512E+00 2.99990E+00 1.70555E-02
 -1      4728 2.13493E+00 3.00010E+00 2.70516E-02
 -1      4729 2.14778E+00 2.99994E+00 1.72102E-02
 -1      4731 2.14769E+00 3.00006E+00 2.72090E-02
 -1      4732 2.16043E+00 2.99997E+00 1.72336E-02
 -1      4734 2.16045E+00 3.00003E+00 2.72334E-02
 -1      4735 2.17309E+00 3.00000E+00 1.71299E-02
 -1      4737 2.17320E+00 3.00000E+00 2.71293E-02
 -1      4738 2.18574E+00 3.00003E+00 1.69016E-02
 -1      4740 2.18596E+00 2.99997E+00 2.68992E-02
 -1      4741 2.19840E+00 3.00006E+00 1.65511E-02
 -1      4743 2.19871E+00 2.99994E+00 2.65457E-02
 -1      4744 2.21105E+00 3.00009E+00 1.60812E-02
 -1      4746 2.21145E+00 2.99991E+00 2.60717E-02
 -1      4747 2.22369E+00 3.00011E+00 1.54906E-02
 -1      4749 2.22419E+00 2.99989E+00 2.54755E-02
 -1      4750 2.23633E+00 3.00014E+00 1.47737E-02
 -1      4752 2.23693E+00 2.99986E+00 2.47514E-02
 -1      4753 2.24895E+00 3.00018E+00 1.39223E-02
 -1      4755 2.24966E+00 2.99982E+00 2.38907E-02
 -1      4756 2.26156E+00 3.00021E+00 1.29270E-02
 -1      4758 2.26239E+00 2.99979E+00 2.28839E-02
 -1      4759 2.27415E+00 3.00025E+00 1.17801E-02
 -1      4761 2.27510E+00 2.99975E+00 2.17229E-02
 -1      4762 2.28673E+00 3.00028E+00 1.04762E-02
 -1      4764 2.28780E+00 2.99972E+00 2.04028E-02
 -1      4765 2.29929E+00 3.00031E+00 9.01642E-03
 -1      4767 2.30048E+00 2.99969E+00 1.89252E-02
 -1      4768 2.31184E+00 3.00035E+00 7.41184E-03
 -1      4770 2.31314E+00 2.99965E+00 1.73027E-02
 -1      4771 2.32438E+00 3.00037E+00 5.67568E-03
 -1      4773 2.32578E+00 2.99963E+00 1.55488E-02
 -1      4774 2.33690E+00 3.00040E+00 3.81955E-03
 -1      4776 2.33839E+00 2.99960E+00 1.36753E-02
 -1      4777 2.34941E+00 3.00042E+00 1.85081E-03
 -1      4779 2.35099E+00 2.99958E+00 1.16890E-02
 -1      4780 2.36190E+00 3.00045E+00-2.26166E-04
 -1      4782 2.36356E+00 2.99955E+00 9.59430E-03
 -1      4783 2.37438E+00 3.00047E+00-2.40745E-03
 -1      4785 2.37612E+00 2.99953E+00 7.39515E-03
 -1      4786 2.38684E+00 3.00049E+00-4.68769E-03
 -1      4788 2.38866E+00 2.99951E+00 5.09712E-03
 -1      4789 2.39928E+00 3.00051E+00-7.06331E-03
 -1      4791 2.40117E+00 2.99949E+00 2.70376E-03
 -1      4792 2.41171E+00 3.00053E+00-9.52933E-03
 -1      4794 2.41367E+00 2.99947E+00 2.20344E-04
 -1      4795 2.42413E+00 3.00054E+00-1.20808E-02
 -1      4797 2.42615E+00 2.99946E+00-2.34813E-03
 -1      4798 2.43652E+00 3.00056E+00-1.47131E-02
 -1      4800 2.43861E+00 2.99944E+00-4.99742E-03
 -1      4801 2.44890E+00 3.00058E+00-1.74266E-02
 -1      4803 2.45105E+00 2.99942E+00-7.72879E-03
 -1      4804 2.46126E+00 3.00059E+00-2.02249E-02
 -1      4806 2.46348E+00 2.99941E+00-1.05464E-02
 -1      4807 2.47360E+00 3.00061E+00-2.31133E-02
 -1      4809 2.47589E+00 2.99939E+00-1.34565E-02
 -1      4810 2.48590E+00 3.00063E+00-2.61009E-02
 -1      4812 2.48828E+00 2.99937E+00-1.64710E-02
 -1      4813 2.13393E-02-1.99711E-03 1.23688E-02
 -1      4815 1.53480E-02 1.99711E-03 1.93078E-02
 -1      4816 1.97622E-02-9.53746E-04 1.11395E-02
 -1      4818 1.69252E-02 9.53746E-04 2.05370E-02
 -1      4827 4.37865E-02-7.66924E-04 1.83680E-02
 -1      4829 4.15172E-02 7.66924E-04 2.79856E-02
 -1      4830 6.83885E-02-5.73591E-04 2.33611E-02
 -1      4832 6.67085E-02 5.73591E-04 3.31520E-02
 -1      4833 9.33203E-02-4.57386E-04 2.72277E-02
 -1      4835 9.19968E-02 4.57386E-04 3.70974E-02
 -1      4836 1.18412E-01-3.73417E-04 3.03180E-02
 -1      4838 1.17348E-01 3.73417E-04 4.02331E-02
 -1      4839 1.43597E-01-3.06676E-04 3.28147E-02
 -1      4841 1.42740E-01 3.06676E-04 4.27591E-02
 -1      4842 1.68842E-01-2.50584E-04 3.48212E-02