<?xml version="1.0"?>
<VTKFile type="UnstructuredGrid" version="2.2">
  <UnstructuredGrid>
    <Piece NumberOfPoints="440" NumberOfCells="800">
      <Points>
        <DataArray type="Float64" NumberOfComponents="3" format="ascii">2 3 1.10423008598e-16 1.799999999994181 2.700000000003834 1.093467437708328e-16 2.02132607261917 3 0.01158833374865993 1.821959217259032 2.700000000003655 -0.01519963694924997 1.823458648785438 2.700000000003653 0.01274717657215555 1.623955562206901 2.400000000006519 -0.01658141459750372 1.599999999989602 2.40000000000685 1.039246464957566e-16 2.019962872335679 3 -0.01381785932424558 2.046329416064458 3 0.01608119623927789 1.425951907155304 2.100000000007918 -0.01796319226786563 1.848825700598373 2.700000000003462 -0.02279161051408543 1.653264441523629 2.40000000000617 -0.02486360217755706 1.850962328414127 2.700000000003463 0.01768932927940444 1.625591224808119 2.400000000006519 0.01390601937560161 1.399999999987356 2.100000000008346 9.235706517837401e-17 1.457703182465037 2.10000000000747 -0.0269355938712763 1.262141923418537 1.800000000007267 -0.02900758559505026 1.227948252101637 1.800000000007753 -0.0193449699602169 2.044386959733877 3 -0.02071961888281875 2.071584300648382 3 0.01889346967022399 1.066580664409087 1.50000000000588 -0.03107957734994836 1.87617719926075 2.700000000003273 -0.02844053353518165 1.683102443960111 2.400000000005823 -0.03102603627572622 1.490027688645428 2.100000000007019 -0.03361153903864671 1.878742707157494 2.700000000003273 0.02078281348536743 1.655595240639236 2.400000000006171 0.01929746231900952 1.427723800663301 2.100000000007919 0.01506486216020919 1.199999999987591 1.800000000008218 7.537088503531796e-17 1.296952933310838 1.800000000006778 -0.03619704182372052 1.103878177988061 1.500000000005416 -0.03878254463232305 1.029944597058632 1.500000000006346 -0.0207267476751711 0.9108034227315086 1.20000000000346 -0.04136804746679014 0.8710194054791136 1.200000000003858 -0.03315156913780175 2.06925195460565 3 -0.0258550308194712 2.096932393962963 3 0.02069771394783974 0.7177286676034677 0.9000000000015744 -0.04395355032978006 1.90373745979781 2.700000000003083 -0.03297195084603515 1.713168178883601 2.400000000005474 -0.03596941056412464 1.522598897911398 2.100000000006568 -0.03896687029625593 1.33202961687445 1.800000000006292 -0.04196433004223015 1.906625611097756 2.700000000003083 0.02276748780151377 1.685901113204204 2.400000000005823 0.02267215727589851 1.460228152697111 2.100000000007469 0.0209055953603244 1.229856376348575 1.800000000007753 0.0162237049260825 0.9999999999897873 1.500000000006791 5.527892265496523e-17 1.141460335809941 1.50000000000495 -0.04496178980363235 0.9508910547816035 1.200000000003061 -0.04795924958311095 0.8319409420483076 1.200000000004256 -0.02210852541378478 0.7603217738623781 0.900000000001271 -0.05095670938365667 0.6754581466770115 0.9000000000018774 -0.03522356096070055 0.5697524931169606 0.6000000000000748 -0.05395416920788354 0.5246539126591454 0.6000000000002721 -0.046539053223637 2.094306740722088 3 -0.02997449114469049 2.12232298878137 3 0.02175742822946396 0.3791832125844447 0.299999999999709 -0.0569516290573074 1.931422240189685 2.700000000002891 -0.0366706120306012 1.743369756773506 2.400000000005128 -0.04000430355476638 1.555317273272568 2.10000000000612 -0.04333799508833401 1.367264789679152 1.800000000005807 -0.04667168663116535 1.179212306034922 1.500000000004484 -0.05000537818495469 1.934555267667301 2.700000000002894 0.02393316875652697 1.716318827863178 2.400000000005474 0.0248372616495283 1.493059518730339 2.100000000007019 0.02456150104475737 1.264861064583348 1.800000000007266 0.02251372840355385 1.031988951876941 1.500000000006346 0.01738254767253466 0.799999999993027 1.200000000004636 3.518696031236009e-17 0.9911598224113813 1.200000000002663 -0.05333906975247822 0.8031073388903449 0.9000000000009684 -0.05667276133684129 0.6339372870959592 0.9000000000021803 -0.02349030317726798 0.6150548555443192 0.5999999999998776 -0.06000645294072821 0.4798968880455315 0.6000000000004688 -0.03729555282049382 0.4270023724169753 0.2999999999996148 -0.06334014456565014 0.3315791579318305 0.2999999999998035 -0.04912455614975313 0.2389498895035967 6.016021013430001e-16 -0.0666738362111934 0.1886139322609477 6.016021013430001e-16 -0.05994908893162603 2.119474723597774 3 -0.0333369205185621 2.147731862654262 3 0.0222095823292601 1.959195261707937 2.700000000002702 -0.03963505426781244 1.773667595223788 2.400000000004778 -0.043238252321815 1.588139928644038 2.10000000000567 -0.04684145038135135 1.402612261960565 1.800000000005318 -0.05044464844634341 1.217084595216161 1.50000000000402 -0.05404784651845452 1.031556928484394 1.200000000002265 -0.05765104460036612 1.962505030824863 2.700000000002702 0.02443054529545261 1.746787546193508 2.400000000005128 0.02610890928550521 1.526012044191303 2.100000000006571 0.02690703549536756 1.3002179237298 1.800000000006778 0.02645084479224643 1.069493976320981 1.500000000005881 0.02412186144745344 0.8341215272707134 1.200000000004256 0.01854139039840431 0.5999999999963107 0.9000000000024697 1.820078028136977e-17 0.8460292618495339 0.9000000000006655 -0.06125424269505388 0.6605015953863469 0.5999999999996801 -0.06485744080506556 0.4359336322240379 0.6000000000006664 -0.02487208096669401 0.4749739291400069 0.2999999999995206 -0.06846063893179728 0.2843356296102729 0.2999999999998979 -0.03936754471828751 0.2894462631059647 6.016021013430001e-16 -0.07206383707477003 0.1385044034180218 6.016021013430001e-16 -0.0517100591079309 2.144722928175642 3 -0.03603185622188658 2.173144719709788 3 0.0221296116895328 1.987045594080162 2.700000000002513 -0.04174497236218372 1.804049775050109 2.400000000004432 -0.0455399681488815 1.621053955915118 2.100000000005221 -0.04933496393642987 1.438058136667161 1.800000000004832 -0.05312995972487209 1.255062317349959 1.500000000003553 -0.05692495551584796 1.072066498038489 1.200000000001867 -0.06071995131191176 0.8890706788185212 0.900000000000363 -0.06451494711584889 1.990459175629421 2.700000000002512 0.02434257517384509 1.777278198647949 2.400000000004779 0.02665150826851171 1.559019824283647 2.100000000006121 0.02828464982025303 1.335705260074854 1.800000000006293 0.02897680933937767 1.10737632823382 1.500000000005416 0.02834018851677767 0.8741268879496493 1.200000000003859 0.0257299944899077 0.636254102555462 0.9000000000021814 0.01970023310237159 0.3999999999987562 0.6000000000008543 6.633199145639862e-18 0.7060748597660639 0.5999999999994829 -0.06830994292999484 0.5230790409268918 0.2999999999994259 -0.07210493875555232 0.2379299774461366 0.2999999999999925 -0.02625385878271064 0.3400832222960569 6.016021013430001e-16 -0.07589993459190875 0.0887743713681398 6.016021013430001e-16 -0.04143953665394274 2.170041413085549 3 -0.03794997657857259 2.198551090660866 3 0.02154843949903629 2.014957069899277 2.700000000002323 -0.04274811259685786 1.834498655585523 2.400000000004083 -0.04663430584667914 1.654040241165573 2.100000000004772 -0.05052049909246899 1.473581826631807 1.800000000004345 -0.05440669233438341 1.293123412026545 1.500000000003089 -0.05829288557394487 1.112664997422253 1.200000000001468 -0.062179078813438 0.9322065829017934 0.9000000000000604 -0.06606527205530488 0.7517481685385665 0.5999999999992855 -0.06995146530154252 2.018406185658988 2.700000000002323 0.02370328305124993 1.807773631198836 2.400000000004432 0.02655553866882288 1.592051366043863 2.10000000000567 0.02887247125244596 1.371252101929902 1.800000000005807 0.03046039036115354 1.145398475550064 1.500000000004949 0.0310465831796573 0.9145347322962151 1.20000000000346 0.03022953221562005 0.6787597995148026 0.9000000000018783 0.02733812752850735 0.4383866777538466 0.6000000000006667 0.0208590757832748 0.1999999999999056 0.3000000000000824 1.211102110313502e-18 0.5712897543767518 0.2999999999993313 -0.07383765855309803 0.3908313404115206 6.016021013430001e-16 -0.0777238518092648 0.03992632276094244 6.016021013430001e-16 -0.02763563662524994 2.195415484184177 3 -0.03886191934481947 2.223941772377432 3 0.02048303435453039 2.042886169606295 2.700000000002133 -0.04256836185986838 1.864966762596883 2.400000000003734 -0.04643821726702813 1.687047355427874 2.100000000004322 -0.05030807266805973 1.509127948091893 1.800000000003857 -0.05417792806324934 1.3312085406294 1.500000000002622 -0.05804778345394349 1.153289133109737 1.20000000000107 -0.06191763884205222 0.9753697256122282 0.899999999999757 -0.06578749422955152 0.7974503182071774 0.5999999999990887 -0.06965734961798828 0.6195309109369539 0.2999999999992368 -0.07352720500798264 2.046335938004679 2.700000000002133 0.0225313477638954 1.838261280316592 2.400000000004083 0.025858126617233 1.625088086337026 2.100000000005221 0.02876850217850872 1.406824533004384 1.800000000005319 0.03109343424766235 1.183484379173565 1.500000000004484 0.03263613090610409 0.9550916906795202 1.200000000003062 0.03311635701294843 0.7216931359786907 0.9000000000015755 0.03211887588564641 0.4833927110567956 0.6000000000004695 0.0289462605611275 0.2405192528795575 0.2999999999999927 0.02201791844042653 1.13686837722e-16 4.54747350886e-16 -9.09976360058e-20 0.4416115037970543 6.016021013430001e-16 -0.07739706039873151 2.220805576530245 3 -0.03869850644785119 2.24930575208929 3 0.01890649937321928 2.070790460889573 2.700000000001944 -0.04136077436525445 1.895407804952097 2.400000000003387 -0.04512083854271636 1.720025148899072 2.100000000003873 -0.04888090271182678 1.544642492723768 1.800000000003369 -0.05264096687302185 1.369259836463801 1.500000000002157 -0.05640103102749999 1.193877180183549 1.200000000000672 -0.06016109517682557 1.018494523956634 0.8999999999994545 -0.06392115932253184 0.8431118678482826 0.5999999999988914 -0.06768122346572626 0.6677292118977917 0.2999999999991422 -0.07144128760669334 0.4923465561009582 6.016021013430001e-16 -0.07520135174449846 2.074236316754273 2.700000000001943 0.02079714570296453 1.868730103301569 2.400000000003734 0.0245796
[...]
      <CellData Vectors="Basis_vector_e2">
        <DataArray type="UInt8" Name="vtkGhostType" format="ascii" RangeMin="0" RangeMax="1">0 0 0 0 0 0 0 0 0 0 0 0 0 0 0 0 0 0 0 0 0 0 0 0 0 0 0 0 0 0 0 0 0 0 0 0 0 0 0 0 0 0 0 0 0 0 0 0 0 0 0 0 0 0 0 0 0 0 0 0 0 0 0 0 0 0 0 0 0 0 0 0 0 0 0 0 0 0 0 0 0 0 0 0 0 0 0 0 0 0 0 0 0 0 0 0 0 0 0 0 0 0 0 0 0 0 0 0 0 0 0 0 0 0 0 0 0 0 0 0 0 0 0 0 0 0 0 0 0 0 0 0 0 0 0 0 0 0 0 0 0 0 0 0 0 0 0 0 0 0 0 0 0 0 0 0 0 0 0 0 0 0 0 0 0 0 0 0 0 0 0 0 0 0 0 0 0 0 0 0 0 0 0 0 0 0 0 0 0 0 0 0 0 0 0 0 0 0 0 0 0 0 0 0 0 0 0 0 0 0 0 0 0 0 0 0 0 0 0 0 0 0 0 0 0 0 0 0 0 0 0 0 0 0 0 0 0 0 0 0 0 0 0 0 0 0 0 0 0 0 0 0 0 0 0 0 0 0 0 0 0 0 0 0 0 0 0 0 0 0 0 0 0 0 0 0 0 0 0 0 0 0 0 0 0 0 0 0 0 0 0 0 0 0 0 0 0 0 0 0 0 0 0 0 0 0 0 0 0 0 0 0 0 0 0 0 0 0 0 0 0 0 0 0 0 0 0 0 0 0 0 0 0 0 0 0 0 0 0 0 0 0 0 0 0 0 0 0 0 0 0 0 0 0 0 0 0 0 0 0 0 0 0 0 0 0 0 0 0 0 0 0 0 0 0 0 0 0 0 0 0 0 0 0 0 0 0 0 0 0 0 0 0 0 0 0 0 0 0 0 0 0 0 0 0 0 0 0 0 0 0 0 0 0 0 0 0 0 0 0 0 0 0 0 0 0 0 0 0 0 0 0 0 0 0 0 0 0 0 0 0 0 0 0 0 0 0 0 0 0 0 0 0 0 0 0 0 0 0 0 0 0 0 0 0 0 0 0 0 0 0 0 0 0 0 0 0 0 0 0 0 0 0 0 0 0 0 0 0 0 0 0 0 0 0 0 0 0 0 0 0 0 0 0 0 0 0 0 0 0 0 0 0 0 0 0 0 0 0 0 0 0 0 0 0 0 0 0 0 0 0 0 0 0 0 0 0 0 0 0 0 0 0 0 0 0 0 0 0 0 0 0 0 0 0 0 0 0 0 0 0 0 0 0 0 0 0 0 0 0 0 0 0 0 0 0 0 0 0 0 0 0 0 0 0 0 0 0 0 0 0 0 0 0 0 0 0 0 0 0 0 0 0 0 0 0 0 0 0 0 0 0 0 0 0 0 0 0 0 0 0 0 0 0 0 0 0 0 0 0 0 0 0 0 0 0 0 0 0 0 0 0 0 0 0 0 0 0 0 0 0 0 0 0 0 0 0 0 0 0 0 0 0 0 0 0 0 0 0 0 0 0 0 0 0 0 0 0 0 0 0 0 0 0 0 0 0 0 0 0 0 0 0 0 0 0 0 0 0 0 0 0 0 0 0 0 0 0 0 0 0 0 0 0 0 0 0 0 0 0 0 0 0 0 0 0 0 0 0 0 0 0 0 0 0 0 0 0 0 0 0 0 0 0 0 0 0 0 0 0 0 0 0 0 0 0 0 0 0 0 0 0 0 0 0 0 0 0 0 0 0 0 0 0 0 0 0 0 0 0 0 0 0 0 0 0 0 0 0 0 0 0 0 0 0 0 0 0 0 0 </DataArray>
        <DataArray type="Int64" IdType="1" Name="vtkOriginalCellIds" format="ascii" RangeMin="0" RangeMax="799">0 1 2 3 4 5 6 7 8 9 10 11 12 13 14 15 16 17 18 19 20 21 22 23 24 25 26 27 28 29 30 31 32 33 34 35 36 37 38 39 40 41 42 43 44 45 46 47 48 49 50 51 52 53 54 55 56 57 58 59 60 61 62 63 64 65 66 67 68 69 70 71 72 73 74 75 76 77 78 79 80 81 82 83 84 85 86 87 88 89 90 91 92 93 94 95 96 97 98 99 100 101 102 103 104 105 106 107 108 109 110 111 112 113 114 115 116 117 118 119 120 121 122 123 124 125 126 127 128 129 130 131 132 133 134 135 136 137 138 139 140 141 142 143 144 145 146 147 148 149 150 151 152 153 154 155 156 157 158 159 160 161 162 163 164 165 166 167 168 169 170 171 172 173 174 175 176 177 178 179 180 181 182 183 184 185 186 187 188 189 190 191 192 193 194 195 196 197 198 199 200 201 202 203 204 205 206 207 208 209 210 211 212 213 214 215 216 217 218 219 220 221 222 223 224 225 226 227 228 229 230 231 232 233 234 235 236 237 238 239 240 241 242 243 244 245 246 247 248 249 250 251 252 253 254 255 256 257 258 259 260 261 262 263 264 265 266 267 268 269 270 271 272 273 274 275 276 277 278 279 280 281 282 283 284 285 286 287 288 289 290 291 292 293 294 295 296 297 298 299 300 301 302 303 304 305 306 307 308 309 310 311 312 313 314 315 316 317 318 319 320 321 322 323 324 325 326 327 328 329 330 331 332 333 334 335 336 337 338 339 340 341 342 343 344 345 346 347 348 349 350 351 352 353 354 355 356 357 358 359 360 361 362 363 364 365 366 367 368 369 370 371 372 373 374 375 376 377 378 379 380 381 382 383 384 385 386 387 388 389 390 391 392 393 394 395 396 397 398 399 400 401 402 403 404 405 406 407 408 409 410 411 412 413 414 415 416 417 418 419 420 421 422 423 424 425 426 427 428 429 430 431 432 433 434 435 436 437 438 439 440 441 442 443 444 445 446 447 448 449 450 451 452 453 454 455 456 457 458 459 460 461 462 463 464 465 466 467 468 469 470 471 472 473 474 475 476 477 478 479 480 481 482 483 484 485 486 487 488 489 490 491 492 493 494 495 496 497 498 499 500 501 502 503 504 505 506 507 508 509 510 511 512 513 514 515 516 517 518 519 520 521 522 523 524 525 526 527 528 529 530 531 532 533 534 535 536 537 538 539 540 541 542 543 544 545 546 547 548 549 550 551 552 553 554 555 556 557 558 559 560 561 562 563 564 565 566 567 568 569 570 571 572 573 574 575 576 577 578 579 580 581 582 583 584 585 586 587 588 589 590 591 592 593 594 595 596 597 598 599 600 601 602 603 604 605 606 607 608 609 610 611 612 613 614 615 616 617 618 619 620 621 622 623 624 625 626 627 628 629 630 631 632 633 634 635 636 637 638 639 640 641 642 643 644 645 646 647 648 649 650 651 652 653 654 655 656 657 658 659 660 661 662 663 664 665 666 667 668 669 670 671 672 673 674 675 676 677 678 679 680 681 682 683 684 685 686 687 688 689 690 691 692 693 694 695 696 697 698 699 700 701 702 703 704 705 706 707 708 709 710 711 712 713 714 715 716 717 718 719 720 721 722 723 724 725 726 727 728 729 730 731 732 733 734 735 736 737 738 739 740 741 742 743 744 745 746 747 748 749 750 751 752 753 754 755 756 757 758 759 760 761 762 763 764 765 766 767 768 769 770 771 772 773 774 775 776 777 778 779 780 781 782 783 784 785 786 787 788 789 790 791 792 793 794 795 796 797 798 799 </DataArray>
        <DataArray type="Float64" Name="Basis_vector_e2" format="ascii" NumberOfComponents="3">0.1448146555399422 0.9528928416042141 -0.266503185647553 0.2018997745819686 0.9349621565736264 0.2916886127344436 0.1448151253476828 0.9528926824282693 -0.2665034994989605 0.20189909804606 0.9349623669434968 0.2916884067075713 0.2019005250529851 0.9349619450926505 0.2916887711446854 0.2018997186756871 0.9349621938444749 0.2916885319655288 0.02114966003143136 0.9928238924698272 -0.1177005115605545 0.1448150963714606 0.9528927017457529 -0.2665034461739739 0.2018990468270581 0.9349624010894931 0.2916883327102667 0.04918662589842625 0.983505570779594 0.1740616789481058 0.04918703048702774 0.9835054380390905 0.1740623146445119 0.02114969136506856 0.9928238813988468 -0.1177005993157678 0.1448154912582962 0.9528925671602659 -0.2665037128115414 0.2018985259256084 0.9349625448458381 0.2916882324751217 0.04918737287587118 0.9835053257032669 0.174062852621922 0.04918766639324577 0.9835052294008411 0.1740633138142147 0.04918617497014402 0.9835057066776675 0.174061038501637 0.04918665734398631 0.9835055495125888 0.1740617902276839 0.0491870593210258 0.9835054185383182 0.1740624166818253 0.008540376161896162 0.9970180533757221 -0.07669461009679303 0.0211496894907612 0.9928238826753535 -0.1177005888850198 0.1448154646305312 0.952892584912111 -0.2665036638085088 0.2018984786782944 0.9349625763440433 0.291688164215656 0.04918739949721851 0.9835053076989386 0.1740629468287759 0.04918769111292562 0.9835052126826344 0.1740634012912126 0.02777053756501647 0.9905295310631542 0.1344620590916179 0.02777030233005511 0.9905296087930776 0.1344615350675803 0.02777010327977205 0.9905296745640036 0.1344610916658048 0.008540280185792668 0.9970180876898794 -0.07669417470423863 0.02114971588660593 0.9928238732974961 -0.1177006632456814 0.1448158019366684 0.9528924692817147 -0.2665038939596117 0.2018980358700693 0.9349626972301291 0.2916880832327062 0.02776993265942815 0.9905297309400006 0.1344607116001581 0.02776978477273652 0.9905297798044912 0.1344603821731228 0.04918792078483424 0.9835051459355 0.1740637135282818 0.02776965534242449 0.9905298225715566 0.1344600938513857 0.02777079993234047 0.9905294514213433 0.1344625915935381 0.02777051949218705 0.9905295434486787 0.1344619715848546 0.0277702857679599 0.9905296201432807 0.1344614548752683 0.02777008799263786 0.9905296850404629 0.1344610176464635 0.003681348497721114 0.9986548499206872 -0.05171980668107796 0.008540285873329334 0.997018083712234 -0.07669422577995524 0.02114971416345095 0.9928238744710596 -0.1177006536561207 0.1448157772747938 0.952892485722966 -0.2665038485744706 0.201897992019239 0.9349627264640124 0.2916880198801104 0.02776991846141172 0.990529740670076 0.1344606428540284 0.02776977151509775 0.9905297888901156 0.134460317980073 0.0491879438502123 0.9835051303361182 0.1740637951508691 0.0277696429047975 0.9905298310952181 0.1344600336286544 0.01820432637302472 0.9936849644443679 0.1107194379433873 0.01820439888866055 0.9936849403803922 0.1107196419896622 0.018204460246297 0.9936849200172904 0.1107198146556091 0.01820451283539345 0.9936849025634462 0.1107199626530854 0.003681368784497082 0.9986548425333426 -0.05171994787871965 0.008540205489696319 0.9970181126133888 -0.07669385901771975 0.02114973678272152 0.9928238663913038 -0.1177007177456623 0.1448160692260824 0.9528923850679265 -0.2665040498256362 0.201897611361381 0.9349628292323633 0.2916879539514508 0.01820455840356168 0.9936848874398676 0.1107200908911699 0.0182045982591284 0.9936848742129762 0.1107202030460806 0.04918814334437174 0.983505072914958 0.1740640632206337 0.0182046334022114 0.9936848625511158 0.110720301929959 0.0277695410964795 0.9905298603226638 0.1344598393441521 0.01820466461209533 0.9936848521955611 0.1107203897367016 0.01820424544087941 0.9936849890775487 0.110719230172 0.01820433192244822 0.9936849605819708 0.1107194716952021 0.01820440397952292 0.993684936837154 0.1107196729524235 0.01820446494644685 0.9936849167459884 0.1107198432419948 0.01820451719792953 0.9936848995271236 0.1107199891860576 0.001389762141263072 0.9994444852008486 -0.03329849189980585 0.003681367606878215 0.9986548433945165 -0.05171993133422492 0.0085402107016616 0.9970181089683385 -0.0766939058228852 0.02114973518214915 0.9928238674813818 -0.117700708838293 0.1448160462418393 0.9528924003907565 -0.2665040075278865 0.2018975704372533 0.9349628565151117 0.2916878948270512 0.01820456247109894 0.9936848846088644 0.1107201156299241 0.01820460206677432 0.9936848715628575 0.1107202262041489 0.04918816495619222 0.983505058298635 0.174064139699253 0.01820463697970645 0.9936848600611821 0.1107203236882292 0.02776952938079408 0.9905298683515705 0.1344597826169208 0.0182046679853985 0.9936848498477449 0.110720410253061 0.01239601500863416 0.9956089838428452 0.09278518256339802 0.01239595798617281 0.9956090028484369 0.09278498624640963 0.01239590973468316 0.9956090189292515 0.09278482014092157 0.01239586837373543 0.9956090327130344 0.09278467776242466 0.01239583252128917 0.9956090446611388 0.09278455434520831 0.001389751187019352 0.9994444893451817 -0.03329836796582002 0.003681384652658672 0.9986548371511904 -0.05172005067252494 0.008540142360943097 0.9970181336754824 -0.0766935922402429 0.02114975482937837 0.9928238604258071 -0.1177007648227272 0.1448163016957448 0.9528923118238625 -0.2665041853895396 0.2018972399384265 0.934962944727151 0.2916878408373924 0.01239580113926892 0.9956090551200005 0.09278444631065894 0.01239577343363869 0.995609064354449 0.09278435092320542 0.04918833964522876 0.9835050085109391 0.1740643716469374 0.01239574878778999 0.9956090725699113 0.0927842660609613 0.02776943949230944 0.990529893897816 0.1344596129886756 0.01239572671696161 0.9956090799276055 0.09278419005878787 0.01820469250702599 0.9936848429406786 0.1107204682101896 0.01239570683633438 0.9956090865551771 0.09278412159843734 0.01239607866890599 0.9956089644149984 0.09278538252402074 0.01239601068719584 0.9956089869111452 0.09278515021708003 0.01239595402769252 0.9956090056590309 0.09278495661678843 0.01239590608135389 0.9956090215231832 0.09278479279532886 0.01239586498001918 0.9956090351226367 0.09278465236001962 0.01239582935088104 0.9956090469121883 0.09278453061425634 0.000327098848332815 0.9998309947761861 -0.01838137348528728 0.001389751799615673 0.9994444888553122 -0.03329838264359682 0.003681383572333329 0.9986548379412149 -0.05172003549495269 0.008540147167428534 0.9970181303140084 -0.07669363540423464 0.02114975333085322 0.9928238614463851 -0.1177007564832662 0.144816280168911 0.952892326175086 -0.2665041457738939 0.2018972015539273 0.9349629703168144 0.2916877853819948 0.01239579816303825 0.9956090572331807 0.09278442403312219 0.01239577062820161 0.9956090663463629 0.0927843299240592 0.04918835996986991 0.9835049947651513 0.1740644435704037 0.01239574613450411 0.9956090744537951 0.0927842462006699 0.02776942841847926 0.9905299014868522 0.134459559369195 0.01239572420120816 0.9956090817138389 0.09278417122793176 0.01820469569951896 0.9936848407187063 0.1107204876268492 0.008209264060262017 0.9970042214544765 0.0769102749022654 0.00820932038137819 0.9970042025277605 0.07691051424129375 0.008209368028835077 0.9970041865148127 0.07691071673378065 0.008209408860410633 0.9970041727920353 0.07691089026550116 0.008209444237556951 0.9970041609024242 0.07691104061552972 0.008209475180955141 0.9970041505032979 0.07691117211725872 0.0003271066082717119 0.9998309915096697 -0.01838155102426224 0.001389742635109654 0.9994444923439593 -0.03329827831485831 0.003681398121800513 0.9986548325816854 -0.05172013794562786 0.008540088319618593 0.9970181517048542 -0.07669336387543303 0.02114977057905064 0.9928238552198394 -0.1177008059057749 0.144816505708361 0.9528922475479085 -0.2665043043508228 0.2018969120482468 0.9349630466849315 0.2916877409817101 0.008209502471170801 0.9970041413324769 0.07691128808612108 0.008209526715757044 0.9970041331857346 0.07691139110473473 0.04918851402817172 0.9835049512991563 0.1740646456284121 0.008209548395166938 0.99700412590137 0.07691148321799982 0.02776934852801687 0.9905299239579194 0.1344594103298388 0.00820956789489382 0.9970041193494085 0.0769115660696722 0.01820471758605964 0.9936848346200405 0.1107205387620322 0.008209201113402861 0.9970042407691985 0.07691003123984536 0.008209268291328287 0.9970042183617792 0.07691031454192952 0.008209324261189711 0.9970041996918144 0.07691055059001513 0.008209371610032767 0.9970041838971394 0.07691075028477753 0.008209412184379523 0.9970041703623843 0.07691092140652615 0.008209447337564334 0.9970041586364782 0.0769110696582745 0.008209478084315724 0.9970041483810913 0.07691119931764129 -1.718226027717065e-05 0.9999850932154104 -0.005460132941334187 0.000327106231845878 0.9998309918986836 -0.01838152987124822 0.00138974319672846 0.9994444918948541 -0.03329829177126299 0.003681397122078683 0.9986548333127657 -0.05172012390048814 0.008540092776451746 0.9970181485879129 -0.07669340389955383 0.02114976916799462 0.9928238561808463 -0.1177007980530925 0.1448164854675686 0.952892261041771 -0.2665042671019038 0.2018968758841778 0.9349630707943084 0.2916876887341771 0.008209505200782377 0.9970041393372725 0.07691131365867475 0.008209529291216534 0.9970041313032076 0.07691141523306499 0.04918853320674686 0.9835049383284667 0.1740647134961237 0.008209550833599319 0.9970041241190032 0.07691150606255134 0.0277693380308382 0.9905299311517697 0.1344593595024147 0.004426275687100656 0.9982819523194707 0.05842560874109906 0.004426231379187151 0.998281967533923 0.05842535213738728 0.004426193876686576 0.9982819804110136 0.05842513495432154 0.004426161721062887 0.9982819914519182 0.05842494873948454 0.004426133842162856 0.9982820010243554 0.05842478729118473 0.004426109437084481 0.998282009404184 0.0584246459569559 0.00442608789179751 0.9982820168023182 0.05842452117963987 -1.718254068958401e-05 0.9999850935461259 -0.005460072371891774 0.0003271127347724146 0.9998309891420548 -0.0183816796968931 0.00138973541439759 0.9994444948753446 -0.03329820263686089 0.003681409705009327 0.9986548286515452 -0.05172021300745881 0.008540041541277547 0.9970181673111436 -0.07669316620144029 0.02114978443716954 0.9928238506402902 -0.1177008420447705 0.1448166861110808 0.952892190714253 -0.2665044095312429 0.2018966202801739 0.9349631374101237 0.2916876521275136 0.004426068728889909 0.9982820233826715 0.05842441019476774 0.004426051571818438 0.9982820292744332 0.05842431082352165 0.04918866993506964 0.9835049001498283 0.1740648905761739 0.004426036119881212 0.9982820345806624 0.05842422132779015 0.02776926661028886 0.9905299510284385 0.1344592278258579 0.004426325289549555 0.9982819368259358 0.05842586971102288 0.004426272459114674 0.9982819548274952 0.05842556613258132 0.004426228420271724 0.9982819698328923 0.05842531308030666 0.004426191144806507 0.998281982533587 0.05842509889388992 0.004426159183186267 0.9982819934237595 0.05842491523973446 0.004426131471919701 0.9982820028659528 0.05842475600407118 0.004426107213161457 0.9982820111320968 0.05842461660117129 0.004426085796808583 0.9982820184300545 0.05842449352570979 0.0001498246431267609 0.9999785392951684 0.006549694777445069 -1.718256374516465e-05 0.9999850935061224 -0.005460079698231992 0.0003271123898034937 0.9998309894985581 -0.01838166031180798 0.00138973593206366 0.9994444944613865 -0.03329821504019286 0.003681408773080909 0.9986548293330491 -0.05172019991477417 0.008540045693947781 0.9970181644069218 -0.07669320349416621 0.02114978310338016 0.9928238515486744 -0.1177008346220881 0.1448166670191717 0.9528922034421934 -0.2665043743966317 0.2018965860756784 0.9349631602131185 0.2916876027109906 0.004426066748564965 0.9982820249213186 0.05842438405434291 0.004426049694408736 0.9982820307331191 0.05842428604153114 0.04918868809036722 0.9835048878711936 0.1740649548226739 0.001240210172441169 0.9994036612814731 0.03450773385655651 0.001240215670346503 0.9994036592313493 0.03450779303403646 0.001240220314329623 0.9994036574995594 0.03450784302264192 0.001240224287507772 0.9994036560178503 0.03450788579254186 0.001240227723919313 0.9994036547362646 0.0345079227857929 0.001240230723935114 0.9994036536173939 0.03450795508220753 0.001240233364232604 0.9994036526326605 0.03450798350669967 0.001240235704443815 0.9994036517598386 0.03450800870083363 0.000149826781376498 0.9999785388616148 0.006549760921247091 -1.718279509767383e-05 0.9999850937845588 -0.00546002870310455 0.0003271179236123492 0.9998309871365222 -0.01838178869075774 0.001389729239055462 0.9994444970399925 -0.0332981379226917 0.003681419776567585 0.9986548252343564 -0.05172027827231523 0.008540000654545072 0.9970181809524798 -0.07669299341549088 0.02114979671158262 0.9928238465857713 -0.1177008740396245 0.1448168466960418 0.9528921401278463 -0.2665045031431707 0.2018963588417762 0.9349632187040766 0.2916875725102905 0.001240237791704877 0.9994036509813574 0.0345080311717894 0.001240239663840283 0.9994036502831151 0.03450805132663148 0.04918881014250307 0.9835048541510384 0.174065110858292 0.001240203955567694 0.9994036633687654 0.03450767362834183 0.001240210528168723 0.9994036609392772 0.03450774375435614 0.0012402159959682 0.9994036589181144 0.03450780209414302 0.001240220614420034 0.9994036572108848 0.03450785137234614 0.001240224565641286 0.9994036557502974 0.03450789353130301 0.001240227982940796 0.9994036544870969 0.03450792999277041 0.00124023096614762 0.9994036533843959 0.03450796182148443 0.00124023359153126 0.9994036524140092 0.03450798983100806 0.001240235918414102 0.9994036515540085 0.03450801465428949 0.00075441457789426 0.9998380770391814 0.01797917020433937 0.0001498265963627526 0.999978538914618 0.006549752833268504 -1.718281624041806e-05 0.9999850937478755 -0.005460035421452159 0.0003271176049980959 0.9998309874657884 -0.01838177078681712 0.001389729718413306 0.9994444966566678 -0.03329814940818338 0.003681418902562746 0.9986548258735016 -0.05172026599341843 0.008540004540848899 0.9970181782345442 -0.07669302831622284 0.02114979544796343 0.9928238474463655 -0.1177008670074489 0.1448168286384994 0.9528921521662087 -0.2665044699121172 0.2018963263884007 0.9349632403396583 0.2916875256236285 0.0012402379936962 0.9994036507870507 0.03450803679193976 -5.84502377597644e-05 0.9999587577807572 0.009081812656886684 -5.844970379813577e-05 0.999958757221024 0.009081874289897674 -5.84492523020538e-05 0.9999587567478856 0.009081926387491238 -5.844886562433727e-05 0.9999587563427083 0.009081971001621439 -5.844853086511009e-05 0.9999587559918753 0.009082009631718383 -5.844823836902244e-05 0.9999587556852111 0.009082043398257113 -5.844798075286853e-05 0.9999587554149619 0.00908207315506809 -5.844775225721171e-05 0.9999587551751152 0.009082099564214975 -5.84475483028324e-05 0.9999587549609348 0.009082123147220539 0.0007543971014304051 0.9998380816522354 0.01797891439968706 0.0001498283911826791 0.9999785385494099 0.006549808549847933 -1.718301000647801e-05 0.9999850939858281 -0.005459991840534377 0.0003271223755170096 0.9998309854157024 -0.018381882