<?xml version="1.0"?>
<VTKFile type="UnstructuredGrid" version="2.2">
  <UnstructuredGrid>
    <Piece NumberOfPoints="440" NumberOfCells="800">
      <Points>
        <DataArray type="Float64" NumberOfComponents="3" format="ascii">2 3 1.10423008598e-16 1.799999999994181 2.700000000003834 1.093467437708328e-16 2.02132607261917 3 0.01158833374865993 1.821959217259032 2.700000000003655 -0.01519963694924997 1.823458648785438 2.700000000003653 0.01274717657215555 1.623955562206901 2.400000000006519 -0.01658141459750372 1.599999999989602 2.40000000000685 1.039246464957566e-16 2.019962872335679 3 -0.01381785932424558 2.046329416064458 3 0.01608119623927789 1.425951907155304 2.100000000007918 -0.01796319226786563 1.848825700598373 2.700000000003462 -0.02279161051408543 1.653264441523629 2.40000000000617 -0.02486360217755706 1.850962328414127 2.700000000003463 0.01768932927940444 1.625591224808119 2.400000000006519 0.01390601937560161 1.399999999987356 2.100000000008346 9.235706517837401e-17 1.457703182465037 2.10000000000747 -0.0269355938712763 1.262141923418537 1.800000000007267 -0.02900758559505026 1.227948252101637 1.800000000007753 -0.0193449699602169 2.044386959733877 3 -0.02071961888281875 2.071584300648382 3 0.01889346967022399 1.066580664409087 1.50000000000588 -0.03107957734994836 1.87617719926075 2.700000000003273 -0.02844053353518165 1.683102443960111 2.400000000005823 -0.03102603627572622 1.490027688645428 2.100000000007019 -0.03361153903864671 1.878742707157494 2.700000000003273 0.02078281348536743 1.655595240639236 2.400000000006171 0.01929746231900952 1.427723800663301 2.100000000007919 0.01506486216020919 1.199999999987591 1.800000000008218 7.537088503531796e-17 1.296952933310838 1.800000000006778 -0.03619704182372052 1.103878177988061 1.500000000005416 -0.03878254463232305 1.029944597058632 1.500000000006346 -0.0207267476751711 0.9108034227315086 1.20000000000346 -0.04136804746679014 0.8710194054791136 1.200000000003858 -0.03315156913780175 2.06925195460565 3 -0.0258550308194712 2.096932393962963 3 0.02069771394783974 0.7177286676034677 0.9000000000015744 -0.04395355032978006 1.90373745979781 2.700000000003083 -0.03297195084603515 1.713168178883601 2.400000000005474 -0.03596941056412464 1.522598897911398 2.100000000006568 -0.03896687029625593 1.33202961687445 1.800000000006292 -0.04196433004223015 1.906625611097756 2.700000000003083 0.02276748780151377 1.685901113204204 2.400000000005823 0.02267215727589851 1.460228152697111 2.100000000007469 0.0209055953603244 1.229856376348575 1.800000000007753 0.0162237049260825 0.9999999999897873 1.500000000006791 5.527892265496523e-17 1.141460335809941 1.50000000000495 -0.04496178980363235 0.9508910547816035 1.200000000003061 -0.04795924958311095 0.8319409420483076 1.200000000004256 -0.02210852541378478 0.7603217738623781 0.900000000001271 -0.05095670938365667 0.6754581466770115 0.9000000000018774 -0.03522356096070055 0.5697524931169606 0.6000000000000748 -0.05395416920788354 0.5246539126591454 0.6000000000002721 -0.046539053223637 2.094306740722088 3 -0.02997449114469049 2.12232298878137 3 0.02175742822946396 0.3791832125844447 0.299999999999709 -0.0569516290573074 1.931422240189685 2.700000000002891 -0.0366706120306012 1.743369756773506 2.400000000005128 -0.04000430355476638 1.555317273272568 2.10000000000612 -0.04333799508833401 1.367264789679152 1.800000000005807 -0.04667168663116535 1.179212306034922 1.500000000004484 -0.05000537818495469 1.934555267667301 2.700000000002894 0.02393316875652697 1.716318827863178 2.400000000005474 0.0248372616495283 1.493059518730339 2.100000000007019 0.02456150104475737 1.264861064583348 1.800000000007266 0.02251372840355385 1.031988951876941 1.500000000006346 0.01738254767253466 0.799999999993027 1.200000000004636 3.518696031236009e-17 0.9911598224113813 1.200000000002663 -0.05333906975247822 0.8031073388903449 0.9000000000009684 -0.05667276133684129 0.6339372870959592 0.9000000000021803 -0.02349030317726798 0.6150548555443192 0.5999999999998776 -0.06000645294072821 0.4798968880455315 0.6000000000004688 -0.03729555282049382 0.4270023724169753 0.2999999999996148 -0.06334014456565014 0.3315791579318305 0.2999999999998035 -0.04912455614975313 0.2389498895035967 6.016021013430001e-16 -0.0666738362111934 0.1886139322609477 6.016021013430001e-16 -0.05994908893162603 2.119474723597774 3 -0.0333369205185621 2.147731862654262 3 0.0222095823292601 1.959195261707937 2.700000000002702 -0.03963505426781244 1.773667595223788 2.400000000004778 -0.043238252321815 1.588139928644038 2.10000000000567 -0.04684145038135135 1.402612261960565 1.800000000005318 -0.05044464844634341 1.217084595216161 1.50000000000402 -0.05404784651845452 1.031556928484394 1.200000000002265 -0.05765104460036612 1.962505030824863 2.700000000002702 0.02443054529545261 1.746787546193508 2.400000000005128 0.02610890928550521 1.526012044191303 2.100000000006571 0.02690703549536756 1.3002179237298 1.800000000006778 0.02645084479224643 1.069493976320981 1.500000000005881 0.02412186144745344 0.8341215272707134 1.200000000004256 0.01854139039840431 0.5999999999963107 0.9000000000024697 1.820078028136977e-17 0.8460292618495339 0.9000000000006655 -0.06125424269505388 0.6605015953863469 0.5999999999996801 -0.06485744080506556 0.4359336322240379 0.6000000000006664 -0.02487208096669401 0.4749739291400069 0.2999999999995206 -0.06846063893179728 0.2843356296102729 0.2999999999998979 -0.03936754471828751 0.2894462631059647 6.016021013430001e-16 -0.07206383707477003 0.1385044034180218 6.016021013430001e-16 -0.0517100591079309 2.144722928175642 3 -0.03603185622188658 2.173144719709788 3 0.0221296116895328 1.987045594080162 2.700000000002513 -0.04174497236218372 1.804049775050109 2.400000000004432 -0.0455399681488815 1.621053955915118 2.100000000005221 -0.04933496393642987 1.438058136667161 1.800000000004832 -0.05312995972487209 1.255062317349959 1.500000000003553 -0.05692495551584796 1.072066498038489 1.200000000001867 -0.06071995131191176 0.8890706788185212 0.900000000000363 -0.06451494711584889 1.990459175629421 2.700000000002512 0.02434257517384509 1.777278198647949 2.400000000004779 0.02665150826851171 1.559019824283647 2.100000000006121 0.02828464982025303 1.335705260074854 1.800000000006293 0.02897680933937767 1.10737632823382 1.500000000005416 0.02834018851677767 0.8741268879496493 1.200000000003859 0.0257299944899077 0.636254102555462 0.9000000000021814 0.01970023310237159 0.3999999999987562 0.6000000000008543 6.633199145639862e-18 0.7060748597660639 0.5999999999994829 -0.06830994292999484 0.5230790409268918 0.2999999999994259 -0.07210493875555232 0.2379299774461366 0.2999999999999925 -0.02625385878271064 0.3400832222960569 6.016021013430001e-16 -0.07589993459190875 0.0887743713681398 6.016021013430001e-16 -0.04143953665394274 2.170041413085549 3 -0.03794997657857259 2.198551090660866 3 0.02154843949903629 2.014957069899277 2.700000000002323 -0.04274811259685786 1.834498655585523 2.400000000004083 -0.04663430584667914 1.654040241165573 2.100000000004772 -0.05052049909246899 1.473581826631807 1.800000000004345 -0.05440669233438341 1.293123412026545 1.500000000003089 -0.05829288557394487 1.112664997422253 1.200000000001468 -0.062179078813438 0.9322065829017934 0.9000000000000604 -0.06606527205530488 0.7517481685385665 0.5999999999992855 -0.06995146530154252 2.018406185658988 2.700000000002323 0.02370328305124993 1.807773631198836 2.400000000004432 0.02655553866882288 1.592051366043863 2.10000000000567 0.02887247125244596 1.371252101929902 1.800000000005807 0.03046039036115354 1.145398475550064 1.500000000004949 0.0310465831796573 0.9145347322962151 1.20000000000346 0.03022953221562005 0.6787597995148026 0.9000000000018783 0.02733812752850735 0.4383866777538466 0.6000000000006667 0.0208590757832748 0.1999999999999056 0.3000000000000824 1.211102110313502e-18 0.5712897543767518 0.2999999999993313 -0.07383765855309803 0.3908313404115206 6.016021013430001e-16 -0.0777238518092648 0.03992632276094244 6.016021013430001e-16 -0.02763563662524994 2.195415484184177 3 -0.03886191934481947 2.223941772377432 3 0.02048303435453039 2.042886169606295 2.700000000002133 -0.04256836185986838 1.864966762596883 2.400000000003734 -0.04643821726702813 1.687047355427874 2.100000000004322 -0.05030807266805973 1.509127948091893 1.800000000003857 -0.05417792806324934 1.3312085406294 1.500000000002622 -0.05804778345394349 1.153289133109737 1.20000000000107 -0.06191763884205222 0.9753697256122282 0.899999999999757 -0.06578749422955152 0.7974503182071774 0.5999999999990887 -0.06965734961798828 0.6195309109369539 0.2999999999992368 -0.07352720500798264 2.046335938004679 2.700000000002133 0.0225313477638954 1.838261280316592 2.400000000004083 0.025858126617233 1.625088086337026 2.100000000005221 0.02876850217850872 1.406824533004384 1.800000000005319 0.03109343424766235 1.183484379173565 1.500000000004484 0.03263613090610409 0.9550916906795202 1.200000000003062 0.03311635701294843 0.7216931359786907 0.9000000000015755 0.03211887588564641 0.4833927110567956 0.6000000000004695 0.0289462605611275 0.2405192528795575 0.2999999999999927 0.02201791844042653 1.13686837722e-16 4.54747350886e-16 -9.09976360058e-20 0.4416115037970543 6.016021013430001e-16 -0.07739706039873151 2.220805576530245 3 -0.03869850644785119 2.24930575208929 3 0.01890649937321928 2.070790460889573 2.700000000001944 -0.04136077436525445 1.895407804952097 2.400000000003387 -0.04512083854271636 1.720025148899072 2.100000000003873 -0.04888090271182678 1.544642492723768 1.800000000003369 -0.05264096687302185 1.369259836463801 1.500000000002157 -0.05640103102749999 1.193877180183549 1.200000000000672 -0.06016109517682557 1.018494523956634 0.8999999999994545 -0.06392115932253184 0.8431118678482826 0.5999999999988914 -0.06768122346572626 0.6677292118977917 0.2999999999991422 -0.07144128760669334 0.4923465561009582 6.016021013430001e-16 -0.07520135174449846 2.074236316754273 2.700000000001943 0.02079714570296453 1.868730103301569 2.400000000003734 0.0245796
[...]
      <CellData Vectors="Basis_vector_e3">
        <DataArray type="UInt8" Name="vtkGhostType" format="ascii" RangeMin="0" RangeMax="1">0 0 0 0 0 0 0 0 0 0 0 0 0 0 0 0 0 0 0 0 0 0 0 0 0 0 0 0 0 0 0 0 0 0 0 0 0 0 0 0 0 0 0 0 0 0 0 0 0 0 0 0 0 0 0 0 0 0 0 0 0 0 0 0 0 0 0 0 0 0 0 0 0 0 0 0 0 0 0 0 0 0 0 0 0 0 0 0 0 0 0 0 0 0 0 0 0 0 0 0 0 0 0 0 0 0 0 0 0 0 0 0 0 0 0 0 0 0 0 0 0 0 0 0 0 0 0 0 0 0 0 0 0 0 0 0 0 0 0 0 0 0 0 0 0 0 0 0 0 0 0 0 0 0 0 0 0 0 0 0 0 0 0 0 0 0 0 0 0 0 0 0 0 0 0 0 0 0 0 0 0 0 0 0 0 0 0 0 0 0 0 0 0 0 0 0 0 0 0 0 0 0 0 0 0 0 0 0 0 0 0 0 0 0 0 0 0 0 0 0 0 0 0 0 0 0 0 0 0 0 0 0 0 0 0 0 0 0 0 0 0 0 0 0 0 0 0 0 0 0 0 0 0 0 0 0 0 0 0 0 0 0 0 0 0 0 0 0 0 0 0 0 0 0 0 0 0 0 0 0 0 0 0 0 0 0 0 0 0 0 0 0 0 0 0 0 0 0 0 0 0 0 0 0 0 0 0 0 0 0 0 0 0 0 0 0 0 0 0 0 0 0 0 0 0 0 0 0 0 0 0 0 0 0 0 0 0 0 0 0 0 0 0 0 0 0 0 0 0 0 0 0 0 0 0 0 0 0 0 0 0 0 0 0 0 0 0 0 0 0 0 0 0 0 0 0 0 0 0 0 0 0 0 0 0 0 0 0 0 0 0 0 0 0 0 0 0 0 0 0 0 0 0 0 0 0 0 0 0 0 0 0 0 0 0 0 0 0 0 0 0 0 0 0 0 0 0 0 0 0 0 0 0 0 0 0 0 0 0 0 0 0 0 0 0 0 0 0 0 0 0 0 0 0 0 0 0 0 0 0 0 0 0 0 0 0 0 0 0 0 0 0 0 0 0 0 0 0 0 0 0 0 0 0 0 0 0 0 0 0 0 0 0 0 0 0 0 0 0 0 0 0 0 0 0 0 0 0 0 0 0 0 0 0 0 0 0 0 0 0 0 0 0 0 0 0 0 0 0 0 0 0 0 0 0 0 0 0 0 0 0 0 0 0 0 0 0 0 0 0 0 0 0 0 0 0 0 0 0 0 0 0 0 0 0 0 0 0 0 0 0 0 0 0 0 0 0 0 0 0 0 0 0 0 0 0 0 0 0 0 0 0 0 0 0 0 0 0 0 0 0 0 0 0 0 0 0 0 0 0 0 0 0 0 0 0 0 0 0 0 0 0 0 0 0 0 0 0 0 0 0 0 0 0 0 0 0 0 0 0 0 0 0 0 0 0 0 0 0 0 0 0 0 0 0 0 0 0 0 0 0 0 0 0 0 0 0 0 0 0 0 0 0 0 0 0 0 0 0 0 0 0 0 0 0 0 0 0 0 0 0 0 0 0 0 0 0 0 0 0 0 0 0 0 0 0 0 0 0 0 0 0 0 0 0 0 0 0 0 0 0 0 0 0 0 0 0 0 0 0 0 0 0 0 0 0 0 0 0 0 0 0 0 0 0 0 0 0 0 0 0 0 0 0 0 0 0 0 0 0 0 0 0 0 0 0 0 0 0 0 0 0 0 0 0 0 0 0 0 0 0 0 0 0 0 0 0 0 0 0 0 0 0 0 0 0 0 0 0 0 </DataArray>
        <DataArray type="Int64" IdType="1" Name="vtkOriginalCellIds" format="ascii" RangeMin="0" RangeMax="799">0 1 2 3 4 5 6 7 8 9 10 11 12 13 14 15 16 17 18 19 20 21 22 23 24 25 26 27 28 29 30 31 32 33 34 35 36 37 38 39 40 41 42 43 44 45 46 47 48 49 50 51 52 53 54 55 56 57 58 59 60 61 62 63 64 65 66 67 68 69 70 71 72 73 74 75 76 77 78 79 80 81 82 83 84 85 86 87 88 89 90 91 92 93 94 95 96 97 98 99 100 101 102 103 104 105 106 107 108 109 110 111 112 113 114 115 116 117 118 119 120 121 122 123 124 125 126 127 128 129 130 131 132 133 134 135 136 137 138 139 140 141 142 143 144 145 146 147 148 149 150 151 152 153 154 155 156 157 158 159 160 161 162 163 164 165 166 167 168 169 170 171 172 173 174 175 176 177 178 179 180 181 182 183 184 185 186 187 188 189 190 191 192 193 194 195 196 197 198 199 200 201 202 203 204 205 206 207 208 209 210 211 212 213 214 215 216 217 218 219 220 221 222 223 224 225 226 227 228 229 230 231 232 233 234 235 236 237 238 239 240 241 242 243 244 245 246 247 248 249 250 251 252 253 254 255 256 257 258 259 260 261 262 263 264 265 266 267 268 269 270 271 272 273 274 275 276 277 278 279 280 281 282 283 284 285 286 287 288 289 290 291 292 293 294 295 296 297 298 299 300 301 302 303 304 305 306 307 308 309 310 311 312 313 314 315 316 317 318 319 320 321 322 323 324 325 326 327 328 329 330 331 332 333 334 335 336 337 338 339 340 341 342 343 344 345 346 347 348 349 350 351 352 353 354 355 356 357 358 359 360 361 362 363 364 365 366 367 368 369 370 371 372 373 374 375 376 377 378 379 380 381 382 383 384 385 386 387 388 389 390 391 392 393 394 395 396 397 398 399 400 401 402 403 404 405 406 407 408 409 410 411 412 413 414 415 416 417 418 419 420 421 422 423 424 425 426 427 428 429 430 431 432 433 434 435 436 437 438 439 440 441 442 443 444 445 446 447 448 449 450 451 452 453 454 455 456 457 458 459 460 461 462 463 464 465 466 467 468 469 470 471 472 473 474 475 476 477 478 479 480 481 482 483 484 485 486 487 488 489 490 491 492 493 494 495 496 497 498 499 500 501 502 503 504 505 506 507 508 509 510 511 512 513 514 515 516 517 518 519 520 521 522 523 524 525 526 527 528 529 530 531 532 533 534 535 536 537 538 539 540 541 542 543 544 545 546 547 548 549 550 551 552 553 554 555 556 557 558 559 560 561 562 563 564 565 566 567 568 569 570 571 572 573 574 575 576 577 578 579 580 581 582 583 584 585 586 587 588 589 590 591 592 593 594 595 596 597 598 599 600 601 602 603 604 605 606 607 608 609 610 611 612 613 614 615 616 617 618 619 620 621 622 623 624 625 626 627 628 629 630 631 632 633 634 635 636 637 638 639 640 641 642 643 644 645 646 647 648 649 650 651 652 653 654 655 656 657 658 659 660 661 662 663 664 665 666 667 668 669 670 671 672 673 674 675 676 677 678 679 680 681 682 683 684 685 686 687 688 689 690 691 692 693 694 695 696 697 698 699 700 701 702 703 704 705 706 707 708 709 710 711 712 713 714 715 716 717 718 719 720 721 722 723 724 725 726 727 728 729 730 731 732 733 734 735 736 737 738 739 740 741 742 743 744 745 746 747 748 749 750 751 752 753 754 755 756 757 758 759 760 761 762 763 764 765 766 767 768 769 770 771 772 773 774 775 776 777 778 779 780 781 782 783 784 785 786 787 788 789 790 791 792 793 794 795 796 797 798 799 </DataArray>
        <DataArray type="Float64" Name="Basis_vector_e3" format="ascii" NumberOfComponents="3">-0.4549607377856015 0.3033071585364351 0.8372666807261201 -0.532121201391631 0.3547474676092754 -0.7687660640626206 -0.4549613876509183 0.3033076586152376 0.8372661464385701 -0.5321203697285253 0.3547469131640388 -0.7687668955675467 -0.5321222228887421 0.3547480249819127 -0.7687650998057705 -0.5321212226038358 0.3547473693792907 -0.7687660947083139 -0.1755887475676521 0.1195856117643813 0.9771734099874813 -0.4549613968741071 0.3033075979260652 0.8372661634120189 -0.5321203891622275 0.3547468231696653 -0.7687669236438764 -0.2674474724986854 0.1808778379058783 -0.9464433724257145 -0.2674485691051715 0.1808785596679077 -0.9464429246056305 -0.1755888707902703 0.1195857036778585 0.9771733765972491 -0.4549619389849785 0.3033080207490698 0.8372657156627819 -0.5321196664242488 0.3547464442885851 -0.7687675987378448 -0.2674494971010762 0.1808791704793864 -0.9464425456344777 -0.2674502926263047 0.1808796941096458 -0.9464422207577731 -0.267446150163649 0.1808770989718212 -0.9464438873119636 -0.2674474667154881 0.1808779535431031 -0.9464433519601303 -0.2674485638022484 0.1808786657009817 -0.9464429058397275 -0.1103415534096879 0.07716865453593051 0.9908934051391457 -0.1755888710160308 0.1195856930800506 0.9771733778536332 -0.45496194746066 0.3033079649786918 0.8372657312605648 -0.5321196843509717 0.3547463612725424 -0.7687676246370636 -0.2674494922050697 0.1808792683753897 -0.9464425283086313 -0.2674502880800255 0.1808797850122735 -0.9464422046695853 -0.2003464539520843 0.1372998473845028 -0.9700567252985868 -0.2003455908750565 0.13729928661225 -0.9700569829204322 -0.2003448605318315 0.1372988121147782 -0.9700572009167047 -0.110340951114308 0.07716821119616626 0.9908935067341869 -0.175588974182995 0.1195857709368362 0.9771733497874397 -0.4549624070474356 0.3033083282506373 0.837265349926418 -0.5321190640019127 0.3547460426673734 -0.7687682010447404 -0.200344234489013 0.1372984053947097 -0.9700573877782084 -0.2003436918602379 0.1372980528648033 -0.9700575497419437 -0.2674509821061125 0.1808801479388794 -0.9464419391870189 -0.2003432169603988 0.1372977443236431 -0.9700576914913865 -0.2003474922535371 0.137300421947395 -0.9700564295342752 -0.2003464564572048 0.137299758030931 -0.9700567374281203 -0.2003455931707609 0.1372992047275146 -0.9700569940360452 -0.2003448626508036 0.1372987365333032 -0.9700572111766342 -0.07090356567922415 0.05185065795040357 0.9961346262649854 -0.1103409506740981 0.07716826258757509 0.9908935027809757 -0.1755889743905492 0.1195857611936879 0.9771733509425035 -0.4549624148973783 0.3033082765977661 0.8372653643726334 -0.5321190806399098 0.3547459656190334 -0.7687682250821484 -0.200344236457015 0.1372983351977438 -0.9700573973071819 -0.2003436936978884 0.1372979873170145 -0.9700575586397869 -0.2674509778640707 0.1808802327578538 -0.946441924175497 -0.200343218684383 0.1372976828299692 -0.9700576998388821 -0.1612156374159828 0.1122060222857722 -0.9805199267813801 -0.1612159695125319 0.1122062353936555 -0.9805198477914243 -0.1612162504848307 0.1122064157266929 -0.9805197809577229 -0.1612164912929483 0.1122065702954806 -0.9805197236760289 -0.0709037613177656 0.05185080023205956 0.9961346049336348 -0.11034044923224 0.07716788918219877 0.990893587698695 -0.1755890622573034 0.1195858282733472 0.9771733269444977 -0.4549628097152668 0.30330859282183 0.8372650352764239 -0.5321185421548427 0.3547456947643127 -0.768768722790665 -0.1612166999526566 0.1122067042275889 -0.9805196740416571 -0.1612168824632465 0.1122068213627923 -0.9805196306288264 -0.2674515853160289 0.1808805449752494 -0.9464416928482174 -0.1612170434079074 0.1122069246382335 -0.9805195923478748 -0.2003427977877718 0.1372974719693129 -0.97005781660961 -0.1612171863539429 0.1122070163451732 -0.9805195583500781 -0.1612152381177656 0.1122058041366492 -0.9805200173972382 -0.1612156367893467 0.1122060564907586 -0.9805199229701547 -0.161215968937675 0.1122062667721428 -0.9805198442951295 -0.161216249954092 0.1122064446968992 -0.9805197777297618 -0.1612164908003321 0.112206597184704 -0.9805197206799341 -0.04167702024778946 0.03332748117711153 0.9985751373740759 -0.07090376137890833 0.05185078364570696 0.9961346057926354 -0.1103404488288405 0.07716793627665806 0.9908935840760358 -0.1755890624500927 0.1195858192233162 0.9771733280173922 -0.4549628170312217 0.303308544682708 0.8372650487399272 -0.532118557682365 0.3547456228582709 -0.7687687452237746 -0.161216699493351 0.1122067292985046 -0.9805196712481613 -0.1612168820332874 0.1122068448317993 -0.9805196280138188 -0.2674515813413074 0.1808806244488299 -0.9464416787827105 -0.1612170430039366 0.1122069466886483 -0.9805195898909301 -0.2003427994116841 0.1372974140449134 -0.9700578244725772 -0.161217185973029 0.1122070371370028 -0.9805195560333679 -0.1318410513010993 0.09360956837533961 -0.9868410134871796 -0.1318407320355636 0.09360936623619126 -0.9868410753151621 -0.1318404618562624 0.0936091952039626 -0.9868411276344302 -0.1318402302501119 0.09360904860223694 -0.9868411724828782 -0.1318400294901589 0.09360892152425837 -0.9868412113582911 -0.0416768473371466 0.03332735689413384 0.9985751487386852 -0.07090392480664971 0.0518509038930796 0.9961345879008938 -0.110340025035885 0.07716761705701311 0.9908936561270451 -0.1755891383084525 0.1195858778000051 0.9771733072177614 -0.454963159923122 0.3033088229296587 0.8372647616171319 -0.5321180855639972 0.3547453903677037 -0.7687691792915295 -0.131839853771109 0.09360881028546325 -0.9868412453857778 -0.131839698649934 0.09360871206922267 -0.9868412754261123 -0.2674521173649463 0.1808808951600404 -0.9464414755721081 -0.1318395606729758 0.09360862469068355 -0.9868413021479571 -0.2003424250120783 0.1372972297418322 -0.9700579278813706 -0.1318394371207792 0.09360854643517794 -0.9868413260772824 -0.1612173141266493 0.1122070983046927 -0.9805195279625135 -0.1318393258294847 0.09360847594510847 -0.9868413476319591 -0.1318414347827629 0.09360977500504186 -0.9868409426538443 -0.1318410517074113 0.09360953574162825 -0.986841016528458 -0.1318407324077487 0.09360933634331554 -0.9868410781010043 -0.1318404621997559 0.09360916761540965 -0.9868411302055184 -0.1318402305691955 0.09360902297413728 -0.9868411748712601 -0.1318400297882462 0.09360889758246294 -0.9868412135895167 -0.01778930163221254 0.01838428363744975 0.9996727258771122 -0.04167684731671903 0.03332737158468883 0.9985751482492418 -0.07090392486274102 0.05185088867710767 0.9961345886889246 -0.1103400246638706 0.07716766048779118 0.9908936527862198 -0.1755891384889501 0.119585869326978 0.9771733082222515 -0.4549631667751849 0.3033087778430314 0.8372647742269238 -0.5321181001279143 0.3547453229238685 -0.7687692003325179 -0.1318398540509391 0.09360878780999679 -0.9868412474803483 -0.1318396989137056 0.09360869088350532 -0.9868412774004844 -0.267452113626948 0.1808809699000969 -0.9464414623443324 -0.1318395609224416 0.09360860465393979 -0.9868413040152506 -0.2003424265470202 0.1372971749907736 -0.9700579353135588 -0.1318394373573138 0.09360852743701599 -0.9868413278477854 -0.1612173137661523 0.1122071179820574 -0.9805195257699801 -0.1058173492303559 0.0773471550992869 -0.9913728391477686 -0.1058177394348546 0.07734739906412082 -0.9913727784637385 -0.1058180695272864 0.07734760546996076 -0.9913727271261711 -0.1058183523917633 0.07734778235521268 -0.9913726831327477 -0.1058185974700707 0.07734793561080489 -0.9913726450160977 -0.105818811839536 0.0773480696539824 -0.991372611676191 -0.01778955169710666 0.01838446128638887 0.9996727181601113 -0.04167670346067839 0.03332726696453828 0.9985751577449367 -0.07090406355050896 0.0518509919022382 0.9961345734441605 -0.1103396618863723 0.07716738411425168 0.9908937147059541 -0.1755892046827111 0.1195859210208934 0.9771732900015623 -0.4549634672723332 0.3033090248625908 0.8372645214533104 -0.5321176824857977 0.3547451216488124 -0.768769582288681 -0.105819000910487 0.07734818786429627 -0.9913725822718802 -0.1058191688912159 0.07734829287425932 -0.9913725561486004 -0.267452590017299 0.1808812062378077 -0.9464412825542819 -0.1058193191061091 0.07734838676821421 -0.9913725327888978 -0.2003420912821322 0.1372970128732538 -0.97005802749979 -0.1058194542183497 0.0773484712215466 -0.9913725117777979 -0.1612174290010004 0.1122071719906658 -0.980519500642473 -0.1058168805018964 0.07734690613227062 -0.9913729086033233 -0.1058173489021115 0.07734719496411969 -0.99137283607254 -0.1058177391338594 0.07734743561931859 -0.9913727756438109 -0.1058180692494569 0.07734763921154297 -0.9913727245232835 -0.1058183521338891 0.07734781367313417 -0.9913726807168203 -0.105818597229571 0.07734796481852768 -0.991372642762951 -0.1058188116142918 0.07734809700887803 -0.9913726095659715 0.003146795005898003 0.005460159976329536 0.9999801419699413 -0.01778955170402821 0.01838444013002579 0.9996727185490635 -0.04167670344195076 0.03332728043265777 0.998575157296222 -0.07090406360241536 0.05185097782156373 0.9961345741733958 -0.1103396615414214 0.07716742438575036 0.9908937116081593 -0.1755892048526733 0.1195859130424412 0.9771732909474202 -0.4549634737150495 0.3033089824695295 0.8372645333097742 -0.5321176962072232 0.3547450581063494 -0.7687696021125185 -0.1058190006987221 0.07734821358211655 -0.9913725802879456 -0.1058191686914099 0.07734831713965264 -0.9913725542767071 -0.2674525864900728 0.1808812767632926 -0.9464412700723966 -0.1058193189169335 0.07734840974253655 -0.9913725310165987 -0.2003420927371423 0.1372969609731787 -0.9700580345449605 -0.0754129084482205 0.05859303434049315 -0.9954294297267658 -0.07541248832657313 0.05859277512287504 -0.995429476812795 -0.07541213271975285 0.0585925557273678 -0.9954295166670484 -0.07541182780639868 0.05859236761552138 -0.9954295508392875 -0.07541156344540026 0.05859220452252092 -0.9954295804666001 -0.07541133202751032 0.05859206174853972 -0.9954296064021261 -0.07541112773225939 0.05859193570019771 -0.9954296292983511 0.003146881269861161 0.005460099408069454 0.9999801420291942 -0.01778976024598061 0.01838459004765736 0.999672712080894 -0.04167658195725079 0.03332719105126443 0.9985751653496061 -0.07090418285547392 0.05185106759704228 0.9961345610120375 -0.1103393475421903 0.07716718247758231 0.990893765412032 -0.1755892630998662 0.1195859590411297 0.9771732748516301 -0.4549637390722159 0.303309203414258 0.8372643090766719 -0.532117323810703 0.3547448825342208 -0.7687699408901971 -0.07541094603255738 0.05859182358485984 -0.9954296496626346 -0.07541078335576148 0.05859172320148866 -0.9954296678952013 -0.2674530125976222 0.1808814843517064 -0.946441109985814 -0.07541063684639526 0.0585916327942233 -0.9954296843157371 -0.2003417907411758 0.1372968175727291 -0.9700581172110359 -0.07541341263223457 0.0585932983118234 -0.9954293759921404 -0.07541290863768345 0.05859299160987558 -0.9954294322276238 -0.0754124885002425 0.05859273595387293 -0.9954294791051952 -0.0754121328800961 0.05859251956360282 -0.9954295187835568 -0.07541182795535475 0.0585923340197765 -0.9954295528054945 -0.07541156358451699 0.05859217314575361 -0.9954295823029354 -0.07541133215803879 0.05859203230863613 -0.9954296081251018 -0.0754111278552201 0.05859190796702575 -0.9954296309214365 0.02286858393448754 -0.006551408176978387 0.9997170134191625 0.003146881269735273 0.00546010673444595 0.9999801419891909 -0.01778976025232379 0.01838457065950303 0.999672712437341 -0.04167658193998885 0.03332720346539438 0.9985751649360082 -0.07090418290386048 0.05185105447123253 0.9961345616918214 -0.110339347220782 0.07716722000080282 0.9908937625256501 -0.1755892632605215 0.1195859514995644 0.9771732757456946 -0.4549637451492427 0.3033091634274865 0.8372643202601514 -0.5321173367886143 0.354744822434801 -0.7687699596398744 -0.07541094614878789 0.05859179736953041 -0.9954296511968852 -0.07541078346595143 0.05859169834848642 -0.9954296693497192 -0.2674530092585866 0.1808815511141779 -0.9464410981699048 -0.03589545642537782 0.03453001328101052 -0.9987588269401312 -0.03589555379452879 0.03453007261777578 -0.9987588213892258 -0.03589563603772644 0.03453012274092539 -0.9987588167004804 -0.03589570639900089 0.03453016562593404 -0.9987588126890107 -0.03589576725298051 0.03453020271874207 -0.9987588092194843 -0.03589582037786314 0.03453023510207026 -0.9987588061905617 -0.03589586713208071 0.03453026360305424 -0.9987588035248248 -0.0358959085720519 0.03453028886498615 -0.9987588011620661 0.02286867930250635 -0.006551474352381544 0.9997170108039419 0.003146953032074181 0.005460055740299079 0.9999801420417942 -0.01778993686006069 0.01838469911659196 0.9996727069320775 -0.04167647803434324 0.03332712613587443 0.9985751718534646 -0.07090428659197653 0.05185113341227002 0.9961345502023036 -0.1103390727995692 0.07716700622810345 0.9908938097311554 -0.1755893148618618 0.11958599270246 0.9771732614310059 -0.4549639810341988 0.3033093623391357 0.8372641200236279 -0.5321170024189851 0.354744668276372 -0.7687702622150006 -0.03589594553276211 0.03453031139641174 -0.9987587990546947 -0.03589597868416543 0.03453033160549136 -0.998758797164521 -0.2674533926237842 0.1808817344602398 -0.9464409547946893 -0.03589533936648685 0.0345299528683658 -0.9987588332358684 -0.03589545641308721 0.03453002318520052 -0.9987588265981562 -0.03589555378327833 0.03453008168373189 -0.9987588210761928 -0.0358956360273581 0.03453013109602052 -0.9987588164119919 -0.03589570638939115 0.03453017336969166 -0.9987588124216304 -0.03589576724403112 0.03453020993037275 -0.9987588089704775 -0.0358958203694945 0.03453024184569835 -0.9987588059577139 -0.03589586712422733 0.03453026993144592 -0.9987588033063145 -0.03589590856465903 0.03453029482228587 -0.9987588009563688 0.04191679890825917 -0.01799499104173002 0.998959039333792 0.02286867930371849 -0.006551466262287125 0.9997170108569312 0.003146953031958737 0.005460062458679956 0.9999801420051109 -0.0177899368659193 0.01838468120981658 0.9996727072612915 -0.04167647801835874 0.03332713763136498 0.9985751714704734 -0.07090428663735572 0.05185112110230695 0.9961345508398358 -0.1103390724987778 0.07716704134454473 0.9908938070299151 -0.1755893150140652 0.1195859855576559 0.977173262278034 -0.4549639867819861 0.3033093245188005 0.8372641306012039 -0.5321170147324757 0.3547446112537391 -0.7687702800047824 -0.03589594552578312 0.03453031702019076 -0.9987587988605132 0.006435567312936512 0.009082000746811317 -0.9999380484489004 0.00643546484883248 0.009082062375109437 -0.9999380485486059 0.006435378222341732 0.009082114468718414 -0.9999380486329704 0.006435304035985082 0.009082159079436205 -0.9999380487052286 0.006435239806670567 0.00908219770657883 -0.9999380487677472 0.006435183677170826 0.009082231470535974 -0.9999380488223041 0.006435134229437119 0.009082261225072889 -0.999938048870273 0.006435090360129007 0.009082287632202458 -0.9999380489127428 0.00643505119546482 0.009082311213407175 -0.999938048950601 0.04191642511239569 -0.01799473472930127 0.9989590596354883 0.02286875866797455 -0.006551522005340855 0.999717008676155 0.003147013638299295 0.005460018878587771 0.9999801420523339 -0