<?xml version="1.0"?>
<VTKFile type="UnstructuredGrid" version="2.2">
  <UnstructuredGrid>
    <Piece NumberOfPoints="440" NumberOfCells="800">
      <Points>
        <DataArray type="Float64" NumberOfComponents="3" format="ascii">2 3 1.10423008598e-16 1.799999999994181 2.700000000003834 1.093467437708328e-16 2.02132607261917 3 0.01158833374865993 1.821959217259032 2.700000000003655 -0.01519963694924997 1.823458648785438 2.700000000003653 0.01274717657215555 1.623955562206901 2.400000000006519 -0.01658141459750372 1.599999999989602 2.40000000000685 1.039246464957566e-16 2.019962872335679 3 -0.01381785932424558 2.046329416064458 3 0.01608119623927789 1.425951907155304 2.100000000007918 -0.01796319226786563 1.848825700598373 2.700000000003462 -0.02279161051408543 1.653264441523629 2.40000000000617 -0.02486360217755706 1.850962328414127 2.700000000003463 0.01768932927940444 1.625591224808119 2.400000000006519 0.01390601937560161 1.399999999987356 2.100000000008346 9.235706517837401e-17 1.457703182465037 2.10000000000747 -0.0269355938712763 1.262141923418537 1.800000000007267 -0.02900758559505026 1.227948252101637 1.800000000007753 -0.0193449699602169 2.044386959733877 3 -0.02071961888281875 2.071584300648382 3 0.01889346967022399 1.066580664409087 1.50000000000588 -0.03107957734994836 1.87617719926075 2.700000000003273 -0.02844053353518165 1.683102443960111 2.400000000005823 -0.03102603627572622 1.490027688645428 2.100000000007019 -0.03361153903864671 1.878742707157494 2.700000000003273 0.02078281348536743 1.655595240639236 2.400000000006171 0.01929746231900952 1.427723800663301 2.100000000007919 0.01506486216020919 1.199999999987591 1.800000000008218 7.537088503531796e-17 1.296952933310838 1.800000000006778 -0.03619704182372052 1.103878177988061 1.500000000005416 -0.03878254463232305 1.029944597058632 1.500000000006346 -0.0207267476751711 0.9108034227315086 1.20000000000346 -0.04136804746679014 0.8710194054791136 1.200000000003858 -0.03315156913780175 2.06925195460565 3 -0.0258550308194712 2.096932393962963 3 0.02069771394783974 0.7177286676034677 0.9000000000015744 -0.04395355032978006 1.90373745979781 2.700000000003083 -0.03297195084603515 1.713168178883601 2.400000000005474 -0.03596941056412464 1.522598897911398 2.100000000006568 -0.03896687029625593 1.33202961687445 1.800000000006292 -0.04196433004223015 1.906625611097756 2.700000000003083 0.02276748780151377 1.685901113204204 2.400000000005823 0.02267215727589851 1.460228152697111 2.100000000007469 0.0209055953603244 1.229856376348575 1.800000000007753 0.0162237049260825 0.9999999999897873 1.500000000006791 5.527892265496523e-17 1.141460335809941 1.50000000000495 -0.04496178980363235 0.9508910547816035 1.200000000003061 -0.04795924958311095 0.8319409420483076 1.200000000004256 -0.02210852541378478 0.7603217738623781 0.900000000001271 -0.05095670938365667 0.6754581466770115 0.9000000000018774 -0.03522356096070055 0.5697524931169606 0.6000000000000748 -0.05395416920788354 0.5246539126591454 0.6000000000002721 -0.046539053223637 2.094306740722088 3 -0.02997449114469049 2.12232298878137 3 0.02175742822946396 0.3791832125844447 0.299999999999709 -0.0569516290573074 1.931422240189685 2.700000000002891 -0.0366706120306012 1.743369756773506 2.400000000005128 -0.04000430355476638 1.555317273272568 2.10000000000612 -0.04333799508833401 1.367264789679152 1.800000000005807 -0.04667168663116535 1.179212306034922 1.500000000004484 -0.05000537818495469 1.934555267667301 2.700000000002894 0.02393316875652697 1.716318827863178 2.400000000005474 0.0248372616495283 1.493059518730339 2.100000000007019 0.02456150104475737 1.264861064583348 1.800000000007266 0.02251372840355385 1.031988951876941 1.500000000006346 0.01738254767253466 0.799999999993027 1.200000000004636 3.518696031236009e-17 0.9911598224113813 1.200000000002663 -0.05333906975247822 0.8031073388903449 0.9000000000009684 -0.05667276133684129 0.6339372870959592 0.9000000000021803 -0.02349030317726798 0.6150548555443192 0.5999999999998776 -0.06000645294072821 0.4798968880455315 0.6000000000004688 -0.03729555282049382 0.4270023724169753 0.2999999999996148 -0.06334014456565014 0.3315791579318305 0.2999999999998035 -0.04912455614975313 0.2389498895035967 6.016021013430001e-16 -0.0666738362111934 0.1886139322609477 6.016021013430001e-16 -0.05994908893162603 2.119474723597774 3 -0.0333369205185621 2.147731862654262 3 0.0222095823292601 1.959195261707937 2.700000000002702 -0.03963505426781244 1.773667595223788 2.400000000004778 -0.043238252321815 1.588139928644038 2.10000000000567 -0.04684145038135135 1.402612261960565 1.800000000005318 -0.05044464844634341 1.217084595216161 1.50000000000402 -0.05404784651845452 1.031556928484394 1.200000000002265 -0.05765104460036612 1.962505030824863 2.700000000002702 0.02443054529545261 1.746787546193508 2.400000000005128 0.02610890928550521 1.526012044191303 2.100000000006571 0.02690703549536756 1.3002179237298 1.800000000006778 0.02645084479224643 1.069493976320981 1.500000000005881 0.02412186144745344 0.8341215272707134 1.200000000004256 0.01854139039840431 0.5999999999963107 0.9000000000024697 1.820078028136977e-17 0.8460292618495339 0.9000000000006655 -0.06125424269505388 0.6605015953863469 0.5999999999996801 -0.06485744080506556 0.4359336322240379 0.6000000000006664 -0.02487208096669401 0.4749739291400069 0.2999999999995206 -0.06846063893179728 0.2843356296102729 0.2999999999998979 -0.03936754471828751 0.2894462631059647 6.016021013430001e-16 -0.07206383707477003 0.1385044034180218 6.016021013430001e-16 -0.0517100591079309 2.144722928175642 3 -0.03603185622188658 2.173144719709788 3 0.0221296116895328 1.987045594080162 2.700000000002513 -0.04174497236218372 1.804049775050109 2.400000000004432 -0.0455399681488815 1.621053955915118 2.100000000005221 -0.04933496393642987 1.438058136667161 1.800000000004832 -0.05312995972487209 1.255062317349959 1.500000000003553 -0.05692495551584796 1.072066498038489 1.200000000001867 -0.06071995131191176 0.8890706788185212 0.900000000000363 -0.06451494711584889 1.990459175629421 2.700000000002512 0.02434257517384509 1.777278198647949 2.400000000004779 0.02665150826851171 1.559019824283647 2.100000000006121 0.02828464982025303 1.335705260074854 1.800000000006293 0.02897680933937767 1.10737632823382 1.500000000005416 0.02834018851677767 0.8741268879496493 1.200000000003859 0.0257299944899077 0.636254102555462 0.9000000000021814 0.01970023310237159 0.3999999999987562 0.6000000000008543 6.633199145639862e-18 0.7060748597660639 0.5999999999994829 -0.06830994292999484 0.5230790409268918 0.2999999999994259 -0.07210493875555232 0.2379299774461366 0.2999999999999925 -0.02625385878271064 0.3400832222960569 6.016021013430001e-16 -0.07589993459190875 0.0887743713681398 6.016021013430001e-16 -0.04143953665394274 2.170041413085549 3 -0.03794997657857259 2.198551090660866 3 0.02154843949903629 2.014957069899277 2.700000000002323 -0.04274811259685786 1.834498655585523 2.400000000004083 -0.04663430584667914 1.654040241165573 2.100000000004772 -0.05052049909246899 1.473581826631807 1.800000000004345 -0.05440669233438341 1.293123412026545 1.500000000003089 -0.05829288557394487 1.112664997422253 1.200000000001468 -0.062179078813438 0.9322065829017934 0.9000000000000604 -0.06606527205530488 0.7517481685385665 0.5999999999992855 -0.06995146530154252 2.018406185658988 2.700000000002323 0.02370328305124993 1.807773631198836 2.400000000004432 0.02655553866882288 1.592051366043863 2.10000000000567 0.02887247125244596 1.371252101929902 1.800000000005807 0.03046039036115354 1.145398475550064 1.500000000004949 0.0310465831796573 0.9145347322962151 1.20000000000346 0.03022953221562005 0.6787597995148026 0.9000000000018783 0.02733812752850735 0.4383866777538466 0.6000000000006667 0.0208590757832748 0.1999999999999056 0.3000000000000824 1.211102110313502e-18 0.5712897543767518 0.2999999999993313 -0.07383765855309803 0.3908313404115206 6.016021013430001e-16 -0.0777238518092648 0.03992632276094244 6.016021013430001e-16 -0.02763563662524994 2.195415484184177 3 -0.03886191934481947 2.223941772377432 3 0.02048303435453039 2.042886169606295 2.700000000002133 -0.04256836185986838 1.864966762596883 2.400000000003734 -0.04643821726702813 1.687047355427874 2.100000000004322 -0.05030807266805973 1.509127948091893 1.800000000003857 -0.05417792806324934 1.3312085406294 1.500000000002622 -0.05804778345394349 1.153289133109737 1.20000000000107 -0.06191763884205222 0.9753697256122282 0.899999999999757 -0.06578749422955152 0.7974503182071774 0.5999999999990887 -0.06965734961798828 0.6195309109369539 0.2999999999992368 -0.07352720500798264 2.046335938004679 2.700000000002133 0.0225313477638954 1.838261280316592 2.400000000004083 0.025858126617233 1.625088086337026 2.100000000005221 0.02876850217850872 1.406824533004384 1.800000000005319 0.03109343424766235 1.183484379173565 1.500000000004484 0.03263613090610409 0.9550916906795202 1.200000000003062 0.03311635701294843 0.7216931359786907 0.9000000000015755 0.03211887588564641 0.4833927110567956 0.6000000000004695 0.0289462605611275 0.2405192528795575 0.2999999999999927 0.02201791844042653 1.13686837722e-16 4.54747350886e-16 -9.09976360058e-20 0.4416115037970543 6.016021013430001e-16 -0.07739706039873151 2.220805576530245 3 -0.03869850644785119 2.24930575208929 3 0.01890649937321928 2.070790460889573 2.700000000001944 -0.04136077436525445 1.895407804952097 2.400000000003387 -0.04512083854271636 1.720025148899072 2.100000000003873 -0.04888090271182678 1.544642492723768 1.800000000003369 -0.05264096687302185 1.369259836463801 1.500000000002157 -0.05640103102749999 1.193877180183549 1.200000000000672 -0.06016109517682557 1.018494523956634 0.8999999999994545 -0.06392115932253184 0.8431118678482826 0.5999999999988914 -0.06768122346572626 0.6677292118977917 0.2999999999991422 -0.07144128760669334 0.4923465561009582 6.016021013430001e-16 -0.07520135174449846 2.074236316754273 2.700000000001943 0.02079714570296453 1.868730103301569 2.400000000003734 0.0245796
[...]
      <CellData>
        <DataArray type="UInt8" Name="vtkGhostType" format="ascii" RangeMin="0" RangeMax="1">0 0 0 0 0 0 0 0 0 0 0 0 0 0 0 0 0 0 0 0 0 0 0 0 0 0 0 0 0 0 0 0 0 0 0 0 0 0 0 0 0 0 0 0 0 0 0 0 0 0 0 0 0 0 0 0 0 0 0 0 0 0 0 0 0 0 0 0 0 0 0 0 0 0 0 0 0 0 0 0 0 0 0 0 0 0 0 0 0 0 0 0 0 0 0 0 0 0 0 0 0 0 0 0 0 0 0 0 0 0 0 0 0 0 0 0 0 0 0 0 0 0 0 0 0 0 0 0 0 0 0 0 0 0 0 0 0 0 0 0 0 0 0 0 0 0 0 0 0 0 0 0 0 0 0 0 0 0 0 0 0 0 0 0 0 0 0 0 0 0 0 0 0 0 0 0 0 0 0 0 0 0 0 0 0 0 0 0 0 0 0 0 0 0 0 0 0 0 0 0 0 0 0 0 0 0 0 0 0 0 0 0 0 0 0 0 0 0 0 0 0 0 0 0 0 0 0 0 0 0 0 0 0 0 0 0 0 0 0 0 0 0 0 0 0 0 0 0 0 0 0 0 0 0 0 0 0 0 0 0 0 0 0 0 0 0 0 0 0 0 0 0 0 0 0 0 0 0 0 0 0 0 0 0 0 0 0 0 0 0 0 0 0 0 0 0 0 0 0 0 0 0 0 0 0 0 0 0 0 0 0 0 0 0 0 0 0 0 0 0 0 0 0 0 0 0 0 0 0 0 0 0 0 0 0 0 0 0 0 0 0 0 0 0 0 0 0 0 0 0 0 0 0 0 0 0 0 0 0 0 0 0 0 0 0 0 0 0 0 0 0 0 0 0 0 0 0 0 0 0 0 0 0 0 0 0 0 0 0 0 0 0 0 0 0 0 0 0 0 0 0 0 0 0 0 0 0 0 0 0 0 0 0 0 0 0 0 0 0 0 0 0 0 0 0 0 0 0 0 0 0 0 0 0 0 0 0 0 0 0 0 0 0 0 0 0 0 0 0 0 0 0 0 0 0 0 0 0 0 0 0 0 0 0 0 0 0 0 0 0 0 0 0 0 0 0 0 0 0 0 0 0 0 0 0 0 0 0 0 0 0 0 0 0 0 0 0 0 0 0 0 0 0 0 0 0 0 0 0 0 0 0 0 0 0 0 0 0 0 0 0 0 0 0 0 0 0 0 0 0 0 0 0 0 0 0 0 0 0 0 0 0 0 0 0 0 0 0 0 0 0 0 0 0 0 0 0 0 0 0 0 0 0 0 0 0 0 0 0 0 0 0 0 0 0 0 0 0 0 0 0 0 0 0 0 0 0 0 0 0 0 0 0 0 0 0 0 0 0 0 0 0 0 0 0 0 0 0 0 0 0 0 0 0 0 0 0 0 0 0 0 0 0 0 0 0 0 0 0 0 0 0 0 0 0 0 0 0 0 0 0 0 0 0 0 0 0 0 0 0 0 0 0 0 0 0 0 0 0 0 0 0 0 0 0 0 0 0 0 0 0 0 0 0 0 0 0 0 0 0 0 0 0 0 0 0 0 0 0 0 0 0 0 0 0 0 0 0 0 0 0 0 0 0 0 0 0 0 0 0 0 0 0 0 0 0 0 0 0 0 0 0 0 0 0 0 0 0 0 0 0 0 0 0 0 0 0 0 0 0 0 0 0 0 0 0 0 0 0 0 0 0 0 0 0 0 0 0 0 0 0 0 0 0 0 0 0 0 0 0 0 0 0 0 0 0 0 0 0 0 0 0 0 0 0 0 0 0 0 0 0 0 0 0 0 0 0 0 0 0 </DataArray>
        <DataArray type="Int64" IdType="1" Name="vtkOriginalCellIds" format="ascii" RangeMin="0" RangeMax="799">0 1 2 3 4 5 6 7 8 9 10 11 12 13 14 15 16 17 18 19 20 21 22 23 24 25 26 27 28 29 30 31 32 33 34 35 36 37 38 39 40 41 42 43 44 45 46 47 48 49 50 51 52 53 54 55 56 57 58 59 60 61 62 63 64 65 66 67 68 69 70 71 72 73 74 75 76 77 78 79 80 81 82 83 84 85 86 87 88 89 90 91 92 93 94 95 96 97 98 99 100 101 102 103 104 105 106 107 108 109 110 111 112 113 114 115 116 117 118 119 120 121 122 123 124 125 126 127 128 129 130 131 132 133 134 135 136 137 138 139 140 141 142 143 144 145 146 147 148 149 150 151 152 153 154 155 156 157 158 159 160 161 162 163 164 165 166 167 168 169 170 171 172 173 174 175 176 177 178 179 180 181 182 183 184 185 186 187 188 189 190 191 192 193 194 195 196 197 198 199 200 201 202 203 204 205 206 207 208 209 210 211 212 213 214 215 216 217 218 219 220 221 222 223 224 225 226 227 228 229 230 231 232 233 234 235 236 237 238 239 240 241 242 243 244 245 246 247 248 249 250 251 252 253 254 255 256 257 258 259 260 261 262 263 264 265 266 267 268 269 270 271 272 273 274 275 276 277 278 279 280 281 282 283 284 285 286 287 288 289 290 291 292 293 294 295 296 297 298 299 300 301 302 303 304 305 306 307 308 309 310 311 312 313 314 315 316 317 318 319 320 321 322 323 324 325 326 327 328 329 330 331 332 333 334 335 336 337 338 339 340 341 342 343 344 345 346 347 348 349 350 351 352 353 354 355 356 357 358 359 360 361 362 363 364 365 366 367 368 369 370 371 372 373 374 375 376 377 378 379 380 381 382 383 384 385 386 387 388 389 390 391 392 393 394 395 396 397 398 399 400 401 402 403 404 405 406 407 408 409 410 411 412 413 414 415 416 417 418 419 420 421 422 423 424 425 426 427 428 429 430 431 432 433 434 435 436 437 438 439 440 441 442 443 444 445 446 447 448 449 450 451 452 453 454 455 456 457 458 459 460 461 462 463 464 465 466 467 468 469 470 471 472 473 474 475 476 477 478 479 480 481 482 483 484 485 486 487 488 489 490 491 492 493 494 495 496 497 498 499 500 501 502 503 504 505 506 507 508 509 510 511 512 513 514 515 516 517 518 519 520 521 522 523 524 525 526 527 528 529 530 531 532 533 534 535 536 537 538 539 540 541 542 543 544 545 546 547 548 549 550 551 552 553 554 555 556 557 558 559 560 561 562 563 564 565 566 567 568 569 570 571 572 573 574 575 576 577 578 579 580 581 582 583 584 585 586 587 588 589 590 591 592 593 594 595 596 597 598 599 600 601 602 603 604 605 606 607 608 609 610 611 612 613 614 615 616 617 618 619 620 621 622 623 624 625 626 627 628 629 630 631 632 633 634 635 636 637 638 639 640 641 642 643 644 645 646 647 648 649 650 651 652 653 654 655 656 657 658 659 660 661 662 663 664 665 666 667 668 669 670 671 672 673 674 675 676 677 678 679 680 681 682 683 684 685 686 687 688 689 690 691 692 693 694 695 696 697 698 699 700 701 702 703 704 705 706 707 708 709 710 711 712 713 714 715 716 717 718 719 720 721 722 723 724 725 726 727 728 729 730 731 732 733 734 735 736 737 738 739 740 741 742 743 744 745 746 747 748 749 750 751 752 753 754 755 756 757 758 759 760 761 762 763 764 765 766 767 768 769 770 771 772 773 774 775 776 777 778 779 780 781 782 783 784 785 786 787 788 789 790 791 792 793 794 795 796 797 798 799 </DataArray>
      </CellData>
      <PointData>
        <DataArray type="Int64" IdType="1" Name="vtkOriginalPointIds" format="ascii" RangeMin="0" RangeMax="439">1 31 60 260 269 261 30 22 61 262 251 252 278 270 29 253 254 263 21 62 255 242 243 244 287 279 271 28 245 246 264 247 256 20 63 248 233 234 235 236 296 288 280 272 27 237 238 265 239 257 240 249 19 64 241 224 225 226 227 228 305 297 289 281 273 26 229 230 266 231 258 232 250 46 47 18 65 215 216 217 218 219 220 314 306 298 290 282 274 25 221 222 267 223 259 45 48 17 66 206 207 208 209 210 211 212 323 315 307 299 291 283 275 24 213 214 268 44 49 16 67 197 198 199 200 201 202 203 204 332 324 316 308 300 292 284 276 23 205 43 50 15 68 188 189 190 191 192 193 194 195 196 341 333 325 317 309 301 293 285 277 2 42 14 69 179 180 181 182 183 184 185 186 187 41 350 342 334 326 318 310 302 294 286 79 13 70 170 171 172 173 174 175 176 177 178 40 359 351 343 335 327 319 311 303 295 80 12 71 161 162 163 164 165 166 167 168 169 39 368 360 352 344 336 328 320 312 304 81 11 72 152 153 154 155 156 157 158 159 160 38 377 369 361 353 345 337 329 321 313 82 10 73 143 144 145 146 147 148 149 150 151 37 386 378 370 362 354 346 338 330 322 83 9 74 134 135 136 137 138 139 140 141 142 36 395 387 379 371 363 355 347 339 331 84 8 75 125 126 127 128 129 130 131 132 133 35 404 396 388 380 372 364 356 348 340 85 7 76 116 117 118 119 120 121 122 123 124 34 413 405 397 389 381 373 365 357 349 86 6 77 107 108 109 110 111 112 113 114 115 33 422 414 406 398 390 382 374 366 358 87 5 78 98 99 100 101 102 103 104 105 106 32 431 423 415 407 399 391 383 375 367 88 4 0 59 58 57 56 55 54 53 52 51 3 432 424 416 408 400 392 384 376 89 433 434 435 436 437 438 439 97 425 417 409 401 393 385 90 426 427 428 429 430 96 418 410 402 394 91 419 420 421 95 411 403 92 412 94 93 </DataArray>
        <DataArray type="UInt8" Name="vtkGhostType" format="ascii" RangeMin="0" RangeMax="0">0 0 0 0 0 0 0 0 0 0 0 0 0 0 0 0 0 0 0 0 0 0 0 0 0 0 0 0 0 0 0 0 0 0 0 0 0 0 0 0 0 0 0 0 0 0 0 0 0 0 0 0 0 0 0 0 0 0 0 0 0 0 0 0 0 0 0 0 0 0 0 0 0 0 0 0 0 0 0 0 0 0 0 0 0 0 0 0 0 0 0 0 0 0 0 0 0 0 0 0 0 0 0 0 0 0 0 0 0 0 0 0 0 0 0 0 0 0 0 0 0 0 0 0 0 0 0 0 0 0 0 0 0 0 0 0 0 0 0 0 0 0 0 0 0 0 0 0 0 0 0 0 0 0 0 0 0 0 0 0 0 0 0 0 0 0 0 0 0 0 0 0 0 0 0 0 0 0 0 0 0 0 0 0 0 0 0 0 0 0 0 0 0 0 0 0 0 0 0 0 0 0 0 0 0 0 0 0 0 0 0 0 0 0 0 0 0 0 0 0 0 0 0 0 0 0 0 0 0 0 0 0 0 0 0 0 0 0 0 0 0 0 0 0 0 0 0 0 0 0 0 0 0 0 0 0 0 0 0 0 0 0 0 0 0 0 0 0 0 0 0 0 0 0 0 0 0 0 0 0 0 0 0 0 0 0 0 0 0 0 0 0 0 0 0 0 0 0 0 0 0 0 0 0 0 0 0 0 0 0 0 0 0 0 0 0 0 0 0 0 0 0 0 0 0 0 0 0 0 0 0 0 0 0 0 0 0 0 0 0 0 0 0 0 0 0 0 0 0 0 0 0 0 0 0 0 0 0 0 0 0 0 0 0 0 0 0 0 0 0 0 0 0 0 0 0 0 0 0 0 0 0 0 0 0 0 0 0 0 0 0 0 0 0 0 0 0 0 0 0 0 0 0 0 0 0 0 0 0 0 0 0 0 0 0 0 0 0 0 0 0 0 0 0 0 0 0 0 0 0 0 0 0 0 0 0 0 0 0 0 </DataArray>
      </PointData>
    </Piece>
  </UnstructuredGrid>
</VTKFile>
