# Force       
# CofR        : (4.000000e-01 0.000000e+00 0.000000e+00)
#
# Time        	total_x total_y total_z	pressure_x pressure_y pressure_z	viscous_x viscous_y viscous_z
1              4.113536e+03 -6.750988e+03 8.052503e+03 4.062297e+03 -6.751553e+03 8.053475e+03 5.123882e+01 5.650570e-01 -9.710987e-01
2              4.332600e+03 -6.798009e+03 7.539138e+03 4.227070e+03 -6.801011e+03 7.544997e+03 1.055302e+02 3.001949e+00 -5.858979e+00
3              4.211245e+03 -6.591293e+03 7.213208e+03 4.035196e+03 -6.599784e+03 7.221827e+03 1.760487e+02 8.490412e+00 -8.619109e+00
4              3.970968e+03 -6.328845e+03 7.471783e+03 3.716115e+03 -6.340232e+03 7.481371e+03 2.548534e+02 1.138716e+01 -9.588472e+00
5              3.734411e+03 -6.088779e+03 8.029011e+03 3.402588e+03 -6.101472e+03 8.040098e+03 3.318232e+02 1.269287e+01 -1.108768e+01
6              3.466526e+03 -5.884651e+03 8.637573e+03 3.126134e+03 -5.896668e+03 8.648677e+03 3.403917e+02 1.201661e+01 -1.110413e+01
7              3.184992e+03 -5.686473e+03 9.168892e+03 2.847251e+03 -5.697722e+03 9.179641e+03 3.377413e+02 1.124803e+01 -1.074875e+01
8              2.911126e+03 -5.506610e+03 9.544695e+03 2.582152e+03 -5.517281e+03 9.554871e+03 3.289743e+02 1.067104e+01 -1.017608e+01
9              2.663986e+03 -5.344061e+03 9.907752e+03 2.342781e+03 -5.354338e+03 9.917317e+03 3.212056e+02 1.027650e+01 -9.565409e+00
10             2.443225e+03 -5.201068e+03 1.024614e+04 2.128524e+03 -5.210972e+03 1.025509e+04 3.147014e+02 9.903707e+00 -8.946677e+00
11             2.244958e+03 -5.074612e+03 1.056309e+04 1.935768e+03 -5.084073e+03 1.057158e+04 3.091904e+02 9.460851e+00 -8.484453e+00
12             2.069300e+03 -4.963915e+03 1.086260e+04 1.764981e+03 -4.972914e+03 1.087086e+04 3.043193e+02 8.998833e+00 -8.253958e+00
13             1.912913e+03 -4.866618e+03 1.114627e+04 1.613016e+03 -4.875158e+03 1.115447e+04 2.998966e+02 8.540753e+00 -8.202829e+00
14             1.772734e+03 -4.780626e+03 1.141633e+04 1.476894e+03 -4.788726e+03 1.142457e+04 2.958398e+02 8.100412e+00 -8.239916e+00
15             1.647296e+03 -4.704816e+03 1.167658e+04 1.355214e+03 -4.712494e+03 1.168488e+04 2.920815e+02 7.678593e+00 -8.308394e+00
16             1.535901e+03 -4.638538e+03 1.193022e+04 1.247328e+03 -4.645807e+03 1.193859e+04 2.885722e+02 7.269040e+00 -8.372546e+00
17             1.437787e+03 -4.581122e+03 1.217938e+04 1.152506e+03 -4.587987e+03 1.218780e+04 2.852808e+02 6.865206e+00 -8.419372e+00
18             1.351897e+03 -4.531769e+03 1.242567e+04 1.069700e+03 -4.538230e+03 1.243412e+04 2.821969e+02 6.461523e+00 -8.450630e+00
19             1.277058e+03 -4.489640e+03 1.266996e+04 9.977468e+02 -4.495693e+03 1.267843e+04 2.793111e+02 6.053220e+00 -8.471702e+00
20             1.212111e+03 -4.453925e+03 1.291180e+04 9.354912e+02 -4.459563e+03 1.292029e+04 2.766193e+02 5.638042e+00 -8.487530e+00
21             1.155968e+03 -4.423876e+03 1.314995e+04 8.818600e+02 -4.429093e+03 1.315845e+04 2.741083e+02 5.216810e+00 -8.500682e+00
22             1.107647e+03 -4.398817e+03 1.338269e+04 8.358759e+02 -4.403610e+03 1.339120e+04 2.717714e+02 4.792535e+00 -8.512797e+00
23             1.066351e+03 -4.378168e+03 1.360830e+04 7.967335e+02 -4.382540e+03 1.361682e+04 2.696170e+02 4.371585e+00 -8.524400e+00
24             1.031398e+03 -4.361415e+03 1.382521e+04 7.637394e+02 -4.365376e+03 1.383375e+04 2.676583e+02 3.960597e+00 -8.535252e+00
25             1.002211e+03 -4.348111e+03 1.403223e+04 7.363062e+02 -4.351676e+03 1.404078e+04 2.659047e+02 3.564805e+00 -8.545719e+00
26             9.783116e+02 -4.337890e+03 1.422850e+04 7.139603e+02 -4.341078e+03 1.423706e+04 2.643513e+02 3.188148e+00 -8.556536e+00
27             9.592563e+02 -4.330421e+03 1.441355e+04 6.962632e+02 -4.333255e+03 1.442212e+04 2.629930e+02 2.834513e+00 -8.568443e+00
28             9.446414e+02 -4.325403e+03 1.458740e+04 6.828200e+02 -4.327910e+03 1.459599e+04 2.618213e+02 2.506869e+00 -8.582001e+00
29             9.340818e+02 -4.322563e+03 1.474998e+04 6.732532e+02 -4.324770e+03 1.475858e+04 2.608285e+02 2.207205e+00 -8.597825e+00
30             9.271939e+02 -4.321637e+03 1.490144e+04 6.671896e+02 -4.323574e+03 1.491006e+04 2.600043e+02 1.936871e+00 -8.615984e+00
31             9.235944e+02 -4.322371e+03 1.504216e+04 6.642567e+02 -4.324067e+03 1.505080e+04 2.593377e+02 1.695810e+00 -8.636506e+00
32             9.229141e+02 -4.324531e+03 1.517260e+04 6.640967e+02 -4.326014e+03 1.518126e+04 2.588174e+02 1.483417e+00 -8.659412e+00
33             9.247927e+02 -4.327891e+03 1.529330e+04 6.663610e+02 -4.329190e+03 1.530198e+04 2.584317e+02 1.299088e+00 -8.685290e+00
34             9.288750e+02 -4.332238e+03 1.540477e+04 6.707062e+02 -4.333380e+03 1.541348e+04 2.581688e+02 1.141927e+00 -8.714792e+00
35             9.348172e+02 -4.337371e+03 1.550754e+04 6.768013e+02 -4.338381e+03 1.551629e+04 2.580159e+02 1.010801e+00 -8.748482e+00
36             9.422987e+02 -4.343109e+03 1.560220e+04 6.843399e+02 -4.344013e+03 1.561099e+04 2.579588e+02 9.040441e-01 -8.786616e+00
37             9.510117e+02 -4.349285e+03 1.568937e+04 6.930277e+02 -4.350104e+03 1.569820e+04 2.579840e+02 8.196550e-01 -8.829206e+00
38             9.606748e+02 -4.355748e+03 1.576964e+04 7.025955e+02 -4.356503e+03 1.577852e+04 2.580793e+02 7.556902e-01 -8.875891e+00
39             9.710208e+02 -4.362360e+03 1.584360e+04 7.127878e+02 -4.363070e+03 1.585253e+04 2.582331e+02 7.098085e-01 -8.926174e+00
40             9.818107e+02 -4.369002e+03 1.591184e+04 7.233751e+02 -4.369681e+03 1.592082e+04 2.584356e+02 6.795708e-01 -8.979621e+00
41             9.928291e+02 -4.375569e+03 1.597490e+04 7.341520e+02 -4.376231e+03 1.598394e+04 2.586771e+02 6.624832e-01 -9.035591e+00
42             1.003891e+03 -4.381977e+03 1.603337e+04 7.449422e+02 -4.382633e+03 1.604246e+04 2.589488e+02 6.562967e-01 -9.093395e+00
43             1.014837e+03 -4.388155e+03 1.608779e+04 7.555940e+02 -4.388814e+03 1.609694e+04 2.592426e+02 6.586950e-01 -9.152298e+00
44             1.025530e+03 -4.394048e+03 1.613868e+04 7.659791e+02 -4.394716e+03 1.614790e+04 2.595507e+02 6.677590e-01 -9.211610e+00
45             1.035856e+03 -4.399611e+03 1.618656e+04 7.759897e+02 -4.400293e+03 1.619583e+04 2.598663e+02 6.817943e-01 -9.270783e+00
46             1.045725e+03 -4.404813e+03 1.623191e+04 7.855410e+02 -4.405512e+03 1.624124e+04 2.601837e+02 6.993215e-01 -9.329358e+00
47             1.055066e+03 -4.409632e+03 1.627519e+04 7.945680e+02 -4.410351e+03 1.628457e+04 2.604979e+02 7.190458e-01 -9.386906e+00
48             1.063830e+03 -4.414057e+03 1.631678e+04 8.030254e+02 -4.414796e+03 1.632623e+04 2.608046e+02 7.398327e-01 -9.443182e+00
49             1.071982e+03 -4.418084e+03 1.635705e+04 8.108818e+02 -4.418844e+03 1.636655e+04 2.611002e+02 7.608054e-01 -9.497880e+00
50             1.079503e+03 -4.421716e+03 1.639630e+04 8.181216e+02 -4.422497e+03 1.640585e+04 2.613817e+02 7.813609e-01 -9.550816e+00
51             1.084489e+03 -4.423938e+03 1.642571e+04 8.228377e+02 -4.424740e+03 1.643531e+04 2.616509e+02 8.011768e-01 -9.600830e+00
52             1.089807e+03 -4.426369e+03 1.646088e+04 8.279267e+02 -4.427189e+03 1.647053e+04 2.618801e+02 8.200854e-01 -9.656306e+00
53             1.094711e+03 -4.428609e+03 1.649596e+04 8.326175e+02 -4.429444e+03 1.650567e+04 2.620939e+02 8.348511e-01 -9.708657e+00
54             1.099214e+03 -4.430615e+03 1.652937e+04 8.369120e+02 -4.431464e+03 1.653913e+04 2.623016e+02 8.482985e-01 -9.756787e+00
55             1.105035e+03 -4.433298e+03 1.657221e+04 8.425483e+02 -4.434159e+03 1.658201e+04 2.624871e+02 8.607656e-01 -9.801732e+00
56             1.109420e+03 -4.435169e+03 1.660765e+04 8.467471e+02 -4.436040e+03 1.661748e+04 2.626727e+02 8.708501e-01 -9.838073e+00
57             1.113343e+03 -4.436759e+03 1.664356e+04 8.505070e+02 -4.437640e+03 1.665343e+04 2.628357e+02 8.814925e-01 -9.872539e+00
58             1.116819e+03 -4.438129e+03 1.668065e+04 8.538450e+02 -4.439019e+03 1.669055e+04 2.629745e+02 8.906766e-01 -9.905887e+00
59             1.119791e+03 -4.439244e+03 1.671798e+04 8.566935e+02 -4.440142e+03 1.672791e+04 2.630976e+02 8.984483e-01 -9.938376e+00
60             1.122323e+03 -4.440131e+03 1.675514e+04 8.591167e+02 -4.441036e+03 1.676511e+04 2.632065e+02 9.051619e-01 -9.969718e+00
61             1.124466e+03 -4.440820e+03 1.679207e+04 8.611642e+02 -4.441731e+03 1.680207e+04 2.633017e+02 9.108460e-01 -9.999386e+00
62             1.126249e+03 -4.441330e+03 1.682875e+04 8.628642e+02 -4.442246e+03 1.683877e+04 2.633850e+02 9.155962e-01 -1.002719e+01
63             1.127709e+03 -4.441683e+03 1.686513e+04 8.642518e+02 -4.442603e+03 1.687518e+04 2.634577e+02 9.194130e-01 -1.005311e+01
64             1.128889e+03 -4.441901e+03 1.690115e+04 8.653675e+02 -4.442824e+03 1.691122e+04 2.635211e+02 9.223783e-01 -1.007729e+01
65             1.129824e+03 -4.442006e+03 1.693674e+04 8.662477e+02 -4.442930e+03 1.694684e+04 2.635765e+02 9.244633e-01 -1.009986e+01
66             1.130552e+03 -4.442015e+03 1.697184e+04 8.669269e+02 -4.442941e+03 1.698196e+04 2.636249e+02 9.257375e-01 -1.012104e+01
67             1.131102e+03 -4.441945e+03 1.700637e+04 8.674344e+02 -4.442872e+03 1.701651e+04 2.636674e+02 9.262346e-01 -1.014091e+01
68             1.131503e+03 -4.441811e+03 1.704024e+04 8.677981e+02 -4.442737e+03 1.705040e+04 2.637049e+02 9.260386e-01 -1.015963e+01
69             1.131780e+03 -4.441626e+03 1.707339e+04 8.680421e+02 -4.442551e+03 1.708357e+04 2.637382e+02 9.251607e-01 -1.017726e+01
70             1.131958e+03 -4.441401e+03 1.710575e+04 8.681894e+02 -4.442325e+03 1.711595e+04 2.637683e+02 9.236876e-01 -1.019390e+01
71             1.132056e+03 -4.441147e+03 1.713728e+04 8.682603e+02 -4.442068e+03 1.714749e+04 2.637956e+02 9.216445e-01 -1.020960e+01
72             1.132095e+03 -4.440872e+03 1.716791e+04 8.682736e+02 -4.441791e+03 1.717813e+04 2.638209e+02 9.191484e-01 -1.022446e+01
73             1.132089e+03 -4.440586e+03 1.719761e+04 8.682446e+02 -4.441502e+03 1.720785e+04 2.638445e+02 9.162088e-01 -1.023848e+01
74             1.132054e+03 -4.440293e+03 1.722634e+04 8.681877e+02 -4.441206e+03 1.723659e+04 2.638668e+02 9.129472e-01 -1.025177e+01
75             1.132002e+03 -4.440001e+03 1.725408e+04 8.681138e+02 -4.440910e+03 1.726434e+04 2.638881e+02 9.093742e-01 -1.026433e+01
76             1.131855e+03 -4.439707e+03 1.727415e+04 8.679427e+02 -4.440612e+03 1.728443e+04 2.639126e+02 9.049450e-01 -1.027640e+01
77             1.131908e+03 -4.439517e+03 1.729642e+04 8.679782e+02 -4.440418e+03 1.730671e+04 2.639301e+02 9.013762e-01 -1.028873e+01
78             1.132040e+03 -4.439375e+03 1.731797e+04 8.680971e+02 -4.440273e+03 1.732827e+04 2.639424e+02 8.979866e-01 -1.029989e+01
79             1.132267e+03 -4.439258e+03 1.734503e+04 8.683157e+02 -4.440152e+03 1.735534e+04 2.639512e+02 8.946024e-01 -1.031004e+01
80             1.132195e+03 -4.439003e+03 1.736729e+04 8.682253e+02 -4.439893e+03 1.737761e+04 2.639693e+02 8.900979e-01 -1.031884e+01
81             1.132086e+03 -4.438732e+03 1.738899e+04 8.680953e+02 -4.439618e+03 1.739932e+04 2.639905e+02 8.854811e-01 -1.032731e+01
82             1.132051e+03 -4.438497e+03 1.741021e+04 8.680405e+02 -4.439379e+03 1.742055e+04 2.640101e+02 8.811591e-01 -1.033539e+01
83             1.132053e+03 -4.438283e+03 1.743051e+04 8.680250e+02 -4.439160e+03 1.744085e+04 2.640282e+02 8.768832e-01 -1.034322e+01
84             1.132069e+03 -4.438078e+03 1.744978e+04 8.680235e+02 -4.438951e+03 1.746013e+04 2.640460e+02 8.726930e-01 -1.035092e+01
85             1.132100e+03 -4.437883e+03 1.746808e+04 8.680365e+02 -4.438752e+03 1.747844e+04 2.640638e+02 8.685897e-01 -1.035830e+01
86             1.132149e+03 -4.437702e+03 1.748546e+04 8.680676e+02 -4.438566e+03 1.749582e+04 2.640812e+02 8.646511e-01 -1.036534e+01
87             1.132213e+03 -4.437532e+03 1.750192e+04 8.681146e+02 -4.438393e+03 1.751230e+04 2.640985e+02 8.608312e-01 -1.037198e+01
88             1.132291e+03 -4.437374e+03 1.751752e+04 8.681758e+02 -4.438231e+03 1.752790e+04 2.641154e+02 8.572001e-01 -1.037827e+01
89             1.132381e+03 -4.437226e+03 1.753228e+04 8.682490e+02 -4.438080e+03 1.754267e+04 2.641319e+02 8.537231e-01 -1.038420e+01
90             1.132481e+03 -4.437087e+03 1.754625e+04 8.683324e+02 -4.437938e+03 1.755664e+04 2.641482e+02 8.504459e-01 -1.038984e+01
91             1.132587e+03 -4.436956e+03 1.755945e+04 8.684229e+02 -4.437804e+03 1.756984e+04 2.641640e+02 8.473339e-01 -1.039515e+01
92             1.132698e+03 -4.436832e+03 1.757192e+04 8.685187e+02 -4.437677e+03 1.758232e+04 2.641794e+02 8.444436e-01 -1.040020e+01
93             1.132812e+03 -4.436714e+03 1.758371e+04 8.686173e+02 -4.437556e+03 1.759411e+04 2.641944e+02 8.417301e-01 -1.040495e+01
94             1.132925e+03 -4.436601e+03 1.759484e+04 8.687164e+02 -4.437440e+03 1.760525e+04 2.642089e+02 8.392390e-01 -1.040947e+01
95             1.133037e+03 -4.436492e+03 1.760535e+04 8.688139e+02 -4.437328e+03 1.761577e+04 2.642229e+02 8.368874e-01 -1.041374e+01
96             1.133145e+03 -4.436386e+03 1.761529e+04 8.689081e+02 -4.437220e+03 1.762570e+04 2.642364e+02 8.347006e-01 -1.041780e+01
97             1.133246e+03 -4.436282e+03 1.762467e+04 8.689969e+02 -4.437115e+03 1.763509e+04 2.642495e+02 8.326173e-01 -1.042163e+01
98             1.133341e+03 -4.436181e+03 1.763354e+04 8.690792e+02 -4.437012e+03 1.764396e+04 2.642620e+02 8.306903e-01 -1.042527e+01
99             1.133380e+03 -4.436081e+03 1.763986e+04 8.691047e+02 -4.436910e+03 1.765029e+04 2.642756e+02 8.286637e-01 -1.042860e+01
100            1.133490e+03 -4.436018e+03 1.764713e+04 8.692045e+02 -4.436845e+03 1.765757e+04 2.642853e+02 8.271363e-01 -1.043280e+01
101            1.133626e+03 -4.435974e+03 1.765419e+04 8.693330e+02 -4.436799e+03 1.766462e+04 2.642930e+02 8.257507e-01 -1.043638e+01
102            1.133740e+03 -4.435921e+03 1.766066e+04 8.694399e+02 -4.436745e+03 1.767110e+04 2.643006e+02 8.244441e-01 -1.043959e+01
103            1.133899e+03 -4.435874e+03 1.766878e+04 8.695930e+02 -4.436697e+03 1.767922e+04 2.643064e+02 8.233439e-01 -1.044254e+01
104            1.133933e+03 -4.435775e+03 1.767501e+04 8.696177e+02 -4.436597e+03 1.768545e+04 2.643156e+02 8.220215e-01 -1.044438e+01
105            1.133932e+03 -4.435665e+03 1.768099e+04 8.696071e+02 -4.436486e+03 1.769144e+04 2.643254e+02 8.207781e-01 -1.044631e+01
106            1.133933e+03 -4.435563e+03 1.768693e+04 8.695989e+02 -4.436383e+03 1.769738e+04 2.643346e+02 8.197001e-01 -1.044823e+01
107            1.133927e+03 -4.435461e+03 1.769262e+04 8.695835e+02 -4.436280e+03 1.770307e+04 2.643434e+02 8.187254e-01 -1.045018e+01
108            1.133912e+03 -4.435360e+03 1.769803e+04 8.695598e+02 -4.436178e+03 1.770848e+04 2.643519e+02 8.178935e-01 -1.045219e+01
109            1.133885e+03 -4.435257e+03 1.770317e+04 8.695253e+02 -4.436074e+03 1.771362e+04 2.643601e+02 8.171289e-01 -1.045415e+01
110            1.133849e+03 -4.435155e+03 1.770806e+04 8.694808e+02 -4.435971e+03 1.771852e+04 2.643680e+02 8.164665e-01 -1.045607e+01
111            1.133802e+03 -4.435052e+03 1.771272e+04 8.694265e+02 -4.435868e+03 1.772317e+04 2.643756e+02 8.158381e-01 -1.045789e+01
112            1.133747e+03 -4.434950e+03 1.771716e+04 8.693644e+02 -4.435765e+03 1.772762e+04 2.643829e+02 8.152849e-01 -1.045968e+01
113            1.133684e+03 -4.434849e+03 1.772140e+04 8.692945e+02 -4.435664e+03 1.773186e+04 2.643899e+02 8.147483e-01 -1.046138e+01
114            1.133615e+03 -4.434750e+03 1.772545e+04 8.692187e+02 -4.435565e+03 1.773591e+04 2.643966e+02 8.142731e-01 -1.046306e+01
115            1.133540e+03 -4.434653e+03 1.772932e+04 8.691372e+02 -4.435467e+03 1.773978e+04 2.644031e+02 8.138000e-01 -1.046468e+01
116            1.133461e+03 -4.434558e+03 1.773302e+04 8.690520e+02 -4.435371e+03 1.774348e+04 2.644093e+02 8.133816e-01 -1.046628e+01
117            1.133378e+03 -4.434465e+03 1.773656e+04 8.689629e+02 -4.435278e+03 1.774703e+04 2.644153e+02 8.129648e-01 -1.046781e+01
118            1.133293e+03 -4.434375e+03 1.773995e+04 8.688721e+02 -4.435188e+03 1.775041e+04 2.644211e+02 8.125950e-01 -1.046933e+01
119            1.133206e+03 -4.434288e+03 1.774319e+04 8.687796e+02 -4.435100e+03 1.775366e+04 2.644266e+02 8.122202e-01 -1.047079e+01
120            1.133119e+03 -4.434204e+03 1.774630e+04 8.686875e+02 -4.435016e+03 1.775678e+04 2.644319e+02 8.118782e-01 -1.047223e+01
121            1.133033e+03 -4.434124e+03 1.774929e+04 8.685955e+02 -4.434935e+03 1.775976e+04 2.644371e+02 8.115321e-01 -1.047361e+01
122            1.132948e+03 -4.434047e+03 1.775216e+04 8.685058e+02 -4.434858e+03 1.776263e+04 2.644421e+02 8.112324e-01 -1.047498e+01
123            1.132865e+03 -4.433974e+03 1.775491e+04 8.684177e+02 -4.434785e+03 1.776539e+04 2.644469e+02 8.109203e-01 -1.047630e+01
124            1.132785e+03 -4.433905e+03 1.775756e+04 8.683333e+02 -4.434716e+03 1.776804e+04 2.644515e+02 8.106374e-01 -1.047760e+01
125            1.132708e+03 -4.433841e+03 1.776010e+04 8.682520e+02 -4.434651e+03 1.777058e+04 2.644560e+02 8.103296e-01 -1.047886e+01
126            1.132636e+03 -4.433781e+03 1.776256e+04 8.681755e+02 -4.434591e+03 1.777304e+04 2.644603e+02 8.100423e-01 -1.048011e+01
127            1.132567e+03 -4.433725e+03 1.776492e+04 8.681029e+02 -4.434535e+03 1.777540e+04 2.644645e+02 8.097189e-01 -1.048131e+01
128            1.132505e+03 -4.433674e+03 1.776719e+04 8.680360e+02 -4.434483e+03 1.777768e+04 2.644685e+02 8.094094e-01 -1.048250e+01
129            1.132446e+03 -4.433626e+03 1.776939e+04 8.679737e+02 -4.434435e+03 1.777987e+04 2.644725e+02 8.090637e-01 -1.048364e+01
130            1.132394e+03 -4.433583e+03 1.777150e+04 8.679176e+02 -4.434392e+03 1.778199e+04 2.644762e+02 8.087335e-01 -1.048477e+01
131            1.132346e+03 -4.433544e+03 1.777354e+04 8.678665e+02 -4.434353e+03 1.778403e+04 2.644799e+02 8.083693e-01 -1.048585e+01
132            1.132305e+03 -4.433510e+03 1.777551e+04 8.678219e+02 -4.434318e+03 1.778599e+04 2.644834e+02 8.080323e-01 -1.048692e+01
133            1.132269e+03 -4.433478e+03 1.777740e+04 8.677822e+02 -4.434286e+03 1.778789e+04 2.644869e+02 8.076653e-01 -1.048794e+01
134            1.132239e+03 -4.433450e+03 1.777923e+04 8.677490e+02 -4.434258e+03 1.778972e+04 2.644902e+02 8.073246e-01 -1.048896e+01
135            1.132214e+03 -4.433426e+03 1.778099e+04 8.677209e+02 -4.434233e+03 1.779148e+04 2.644935e+02 8.069711e-01 -1.048992e+01
136            1.132195e+03 -4.433405e+03 1.778269e+04 8.676989e+02 -4.434212e+03 1.779318e+04 2.644966e+02 8.066569e-01 -1.049088e+01
137            1.132181e+03 -4.433387e+03 1.778433e+04 8.676816e+02 -4.434194e+03 1.779482e+04 2.644996e+02 8.063224e-01 -1.049179e+01
138            1.132173e+03 -4.433373e+03 1.778591e+04 8.676703e+02 -4.434179e+03 1.779640e+04 2.645026e+02 8.060181e-01 -1.049270e+01
139            1.132169e+03 -4.433361e+03 1.778743e+04 8.676633e+02 -4.434167e+03 1.779793e+04 2.645054e+02 8.056869e-01 -1.049358e+01
140            1.132170e+03 -4.433352e+03 1.778890e+04 8.676617e+02 -4.434158e+03 1.779940e+04 2.645081e+02 8.053792e-01 -1.049444e+01
141            1.132175e+03 -4.433346e+03 1.779032e+04 8.676641e+02 -4.434151e+03 1.780081e+04 2.645107e+02 8.050403e-01 -1.049528e+01
142            1.132184e+03 -4.433342e+03 1.779169e+04 8.676713e+02 -4.434147e+03 1.780218e+04 2.645132e+02 8.047223e-01 -1.049609e+01
143            1.132197e+03 -4.433340e+03 1.779300e+04 8.676817e+02 -4.434144e+03 1.780350e+04 2.645156e+02 8.043732e-01 -1.049687e+01
144            1.132214e+03 -4.433340e+03 1.779427e+04 8.676963e+02 -4.434144e+03 1.780477e+04 2.645179e+02 8.040496e-01 -1.049763e+01
145            1.132234e+03 -4.433341e+03 1.779550e+04 8.677136e+02 -4.434145e+03 1.780600e+04 2.645202e+02 8.037016e-01 -1.049835e+01
146            1.132256e+03 -4.433344e+03 1.779668e+04 8.677342e+02 -4.434147e+03 1.780718e+04 2.645223e+02 8.033965e-01 -1.049905e+01
147            1.132281e+03 -4.433348e+03 1.779782e+04 8.677567e+02 -4.434151e+03 1.780832e+04 2.645243e+02 8.030677e-01 -1.049971e+01
148            1.132308e+03 -4.433353e+03 1.779892e+04 8.677821e+02 -4.434156e+03 1.780942e+04 2.645262e+02 8.027842e-01 -1.050036e+01
149            1.132337e+03 -4.433359e+03 1.779997e+04 8.678087e+02 -4.434161e+03 1.781047e+04 2.645281e+02 8.024977e-01 -1.050096e+01
150            1.132367e+03 -4.433365e+03 1.780099e+04 8.678374e+02 -4.434167e+03 1.781149e+04 2.645299e+02 8.022588e-01 -1.050156e+01
151            1.132399e+03 -4.433372e+03 1.780196e+04 8.678669e+02 -4.434174e+03 1.781247e+04 2.645317e+02 8.020071e-01 -1.050211e+01
152            1.132431e+03 -4.433380e+03 1.780291e+04 8.678980e+02 -4.434182e+03 1.781341e+04 2.645334e+02 8.017934e-01 -1.050266e+01
153            1.132464e+03 -4.433388e+03 1.780381e+04 8.679293e+02 -4.434189e+03 1.781431e+04 2.645350e+02 8.015605e-01 -1.050317e+01
154            1.132498e+03 -4.433396e+03 1.780468e+04 8.679618e+02 -4.434198e+03 1.781519e+04 2.645366e+02 8.013586e-01 -1.050368e+01
155            1.132532e+03 -4.433405e+03 1.780552e+04 8.679940e+02 -4.434206e+03 1.781602e+04 2.645381e+02 8.011299e-01 -1.050414e+01
156            1.132566e+03 -4.433414e+03 1.780633e+04 8.680269e+02 -4.434215e+03 1.781683e+04 2.645396e+02 8.009281e-01 -1.050460e+01
157            1.132600e+03 -4.433423e+03 1.780710e+04 8.680592e+02 -4.434224e+03 1.781761e+04 2.645410e+02 8.006992e-01 -1.050502e+01
158            1.132634e+03 -4.433432e+03 1.780785e+04 8.680916e+02 -4.434232e+03 1.781835e+04 2.645423e+02 8.005009e-01 -1.050543e+01
159            1.132667e+03 -4.433440e+03 1.780856e+04 8.681229e+02 -4.434240e+03 1.781907e+04 2.645436e+02 8.002856e-01 -1.050581e+01
160            1.132699e+03 -4.433448e+03 1.780925e+04 8.681540e+02 -4.434248e+03 1.781976e+04 2.645449e+02 8.001134e-01 -1.050618e+01
161            1.132730e+03 -4.433455e+03 1.780991e+04 8.681837e+02 -4.434255e+03 1.782042e+04 2.645461e+02 7.999197e-01 -1.050651e+01
162            1.132760e+03 -4.433462e+03 1.781055e+04 8.682131e+02 -4.434262e+03 1.782106e+04 2.645473e+02 7.997742e-01 -1.050685e+01
163            1.132789e+03 -4.433469e+03 1.781116e+04 8.682407e+02 -4.434268e+03 1.782167e+04 2.645484e+02 7.996241e-01 -1.050715e+01
164            1.132817e+03 -4.433475e+03 1.781175e+04 8.682679e+02 -4.434274e+03 1.782225e+04 2.645494e+02 7.995177e-01 -1.050747e+01
165            1.132844e+03 -4.433480e+03 1.781231e+04 8.682932e+02 -4.434280e+03 1.782282e+04 2.645504e+02 7.993934e-01 -1.050777e+01
166            1.132869e+03 -4.433486e+03 1.781285e+04 8.683180e+02 -4.434285e+03 1.782336e+04 2.645513e+02 7.993001e-01 -1.050807e+01
167            1.132893e+03 -4.433490e+03 1.781336e+04 8.683412e+02 -4.434289e+03 1.782387e+04 2.645522e+02 7.991839e-01 -1.050836e+01
168            1.132917e+03 -4.433495e+03 1.781386e+04 8.683637e+02 -4.434294e+03 1.782437e+04 2.645530e+02 7.990933e-01 -1.050864e+01
169            1.132931e+03 -4.433496e+03 1.781422e+04 8.683767e+02 -4.434295e+03 1.782473e+04 2.645539e+02 7.989684e-01 -1.050890e+01
170            1.132949e+03 -4.433500e+03 1.781462e+04 8.683948e+02 -4.434299e+03 1.782513e+04 2.645546e+02 7.988831e-01 -1.050921e+01
171            1.132967e+03 -4.433503e+03 1.781501e+04 8.684120e+02 -4.434302e+03 1.782552e+04 2.645552e+02 7.987634e-01 -1.050948e+01
172            1.132984e+03 -4.433507e+03 1.781538e+04 8.684287e+02 -4.434305e+03 1.782589e+04 2.645557e+02 7.986731e-01 -1.050974e+01
173            1.133000e+03 -4.433510e+03 1.781573e+04 8.684441e+02 -4.434308e+03 1.782624e+04 2.645563e+02 7.985696e-01 -1.050996e+01
174            1.133016e+03 -4.433513e+03 1.781607e+04 8.684591e+02 -4.434311e+03 1.782658e+04 2.645568e+02 7.985014e-01 -1.051017e+01
175            1.133030e+03 -4.433515e+03 1.781640e+04 8.684727e+02 -4.434313e+03 1.782691e+04 2.645573e+02 7.984127e-01 -1.051035e+01
176            1.133044e+03 -4.433517e+03 1.781672e+04 8.684860e+02 -4.434315e+03 1.782723e+04 2.645577e+02 7.983695e-01 -1.051053e+01
177            1.133056e+03 -4.433518e+03 1.781703e+04 8.684981e+02 -4.434317e+03 1.782754e+04 2.645581e+02 7.983189e-01 -1.051069e+01
178            1.133068e+03 -4.433520e+03 1.781733e+04 8.685098e+02 -4.434318e+03 1.782784e+04 2.645586e+02 7.983055e-01 -1.051085e+01
179            1.133085e+03 -4.433523e+03 1.781772e+04 8.685259e+02 -4.434321e+03 1.782823e+04 2.645589e+02 7.982809e-01 -1.051098e+01
180            1.133095e+03 -4.433523e+03 1.781803e+04 8.685353e+02 -4.434321e+03 1.782854e+04 2.645593e+02 7.982705e-01 -1.051108e+01
181            1.133103e+03 -4.433522e+03 1.781834e+04 8.685428e+02 -4.434320e+03 1.782885e+04 2.645598e+02 7.982430e-01 -1.051118e+01
182            1.133110e+03 -4.433521e+03 1.781864e+04 8.685502e+02 -4.434319e+03 1.782915e+04 2.645602e+02 7.982419e-01 -1.051128e+01
183            1.133117e+03 -4.433520e+03 1.781893e+04 8.685559e+02 -4.434318e+03 1.782944e+04 2.645607e+02 7.982110e-01 -1.051137e+01
184            1.133122e+03 -4.433518e+03 1.781921e+04 8.685612e+02 -4.434316e+03 1.782972e+04 2.645611e+02 7.982022e-01 -1.051148e+01
185            1.133127e+03 -4.433516e+03 1.781947e+04 8.685650e+02 -4.434314e+03 1.782998e+04 2.645616e+02 7.981652e-01 -1.051156e+01
186            1.133131e+03 -4.433514e+03 1.781972e+04 8.685685e+02 -4.434312e+03 1.783023e+04 2.645620e+02 7.981525e-01 -1.051166e+01
187            1.133131e+03 -4.433511e+03 1.781990e+04 8.685687e+02 -4.434309e+03 1.783041e+04 2.645625e+02 7.981160e-01 -1.051173e+01
188            1.133135e+03 -4.433509e+03 1.782010e+04 8.685719e+02 -4.434307e+03 1.783061e+04 2.645629e+02 7.981172e-01 -1.051184e+01
189            1.133138e+03 -4.433507e+03 1.782029e+04 8.685749e+02 -4.434306e+03 1.783080e+04 2.645633e+02 7.980906e-01 -1.051193e+01
190            1.133141e+03 -4.433505e+03 1.782047e+04 8.685773e+02 -4.434304e+03 1.783098e+04 2.645637e+02 7.980957e-01 -1.051203e+01
191            1.133143e+03 -4.433503e+03 1.782064e+04 8.685786e+02 -4.434301e+03 1.783115e+04 2.645640e+02 7.980825e-01 -1.051212e+01
192            1.133144e+03 -4.433501e+03 1.782081e+04 8.685801e+02 -4.434299e+03 1.783132e+04 2.645643e+02 7.980963e-01 -1.051222e+01
193            1.133145e+03 -4.433498e+03 1.782097e+04 8.685807e+02 -4.434296e+03 1.783148e+04 2.645646e+02 7.980811e-01 -1.051232e+01
194            1.133146e+03 -4.433496e+03 1.782112e+04 8.685815e+02 -4.434294e+03 1.783164e+04 2.645648e+02 7.980880e-01 -1.051242e+01
195            1.133146e+03 -4.433493e+03 1.782127e+04 8.685814e+02 -4.434292e+03 1.783178e+04 2.645650e+02 7.980658e-01 -1.051251e+01
196            1.133147e+03 -4.433491e+03 1.782142e+04 8.685816e+02 -4.434289e+03 1.783193e+04 2.645652e+02 7.980646e-01 -1.051260e+01
197            1.133146e+03 -4.433489e+03 1.782155e+04 8.685808e+02 -4.434287e+03 1.783207e+04 2.645655e+02 7.980339e-01 -1.051269e+01
198            1.133146e+03 -4.433487e+03 1.782169e+04 8.685804e+02 -4.434285e+03 1.783220e+04 2.645656e+02 7.980258e-01 -1.051278e+01
199            1.133145e+03 -4.433484e+03 1.782182e+04 8.685792e+02 -4.434282e+03 1.783233e+04 2.645658e+02 7.979904e-01 -1.051285e+01
200            1.133144e+03 -4.433482e+03 1.782194e+04 8.685783e+02 -4.434280e+03 1.783245e+04 2.645659e+02 7.979809e-01 -1.051293e+01
201            1.133143e+03 -4.433479e+03 1.782206e+04 8.685766e+02 -4.434277e+03 1.783257e+04 2.645661e+02 7.979565e-01 -1.051300e+01
202            1.133141e+03 -4.433477e+03 1.782217e+04 8.685752e+02 -4.434275e+03 1.783268e+04 2.645662e+02 7.979525e-01 -1.051306e+01
203            1.133139e+03 -4.433474e+03 1.782228e+04 8.685731e+02 -4.434272e+03 1.783279e+04 2.645664e+02 7.979287e-01 -1.051312e+01
204            1.133138e+03 -4.433471e+03 1.782238e+04 8.685714e+02 -4.434269e+03 1.783290e+04 2.645665e+02 7.979422e-01 -1.051317e+01
205            1.133136e+03 -4.433468e+03 1.782248e+04 8.685691e+02 -4.434266e+03 1.783299e+04 2.645667e+02 7.979384e-01 -1.051321e+01
206            1.133134e+03 -4.433465e+03 1.782258e+04 8.685672e+02 -4.434263e+03 1.783309e+04 2.645668e+02 7.979625e-01 -1.051326e+01
207            1.133132e+03 -4.433462e+03 1.782267e+04 8.685646e+02 -4.434260e+03 1.783318e+04 2.645670e+02 7.979608e-01 -1.051330e+01
208            1.133130e+03 -4.433460e+03 1.782276e+04 8.685625e+02 -4.434258e+03 1.783327e+04 2.645672e+02 7.979818e-01 -1.051335e+01
209            1.133127e+03 -4.433457e+03 1.782284e+04 8.685599e+02 -4.434255e+03 1.783336e+04 2.645674e+02 7.979724e-01 -1.051338e+01
210            1.133125e+03 -4.433455e+03 1.782293e+04 8.685577e+02 -4.434253e+03 1.783344e+04 2.645676e+02 7.979827e-01 -1.051342e+01
211            1.133123e+03 -4.433452e+03 1.782301e+04 8.685550e+02 -4.434250e+03 1.783352e+04 2.645678e+02 7.979611e-01 -1.051345e+01
212            1.133121e+03 -4.433450e+03 1.782308e+04 8.685526e+02 -4.434248e+03 1.783360e+04 2.645680e+02 7.979594e-01 -1.051349e+01
213            1.133118e+03 -4.433447e+03 1.782315e+04 8.685497e+02 -4.434245e+03 1.783367e+04 2.645682e+02 7.979274e-01 -1.051351e+01
214            1.133116e+03 -4.433445e+03 1.782322e+04 8.685473e+02 -4.434243e+03 1.783374e+04 2.645684e+02 7.979197e-01 -1.051354e+01
215            1.133113e+03 -4.433443e+03 1.782329e+04 8.685444e+02 -4.434241e+03 1.783380e+04 2.645686e+02 7.978896e-01 -1.051356e+01
216            1.133111e+03 -4.433440e+03 1.782335e+04 8.685419e+02 -4.434238e+03 1.783386e+04 2.645688e+02 7.978772e-01 -1.051360e+01
217            1.133108e+03 -4.433438e+03 1.782341e+04 8.685390e+02 -4.434236e+03 1.783392e+04 2.645690e+02 7.978460e-01 -1.051363e+01
218            1.133106e+03 -4.433436e+03 1.782346e+04 8.685367e+02 -4.434233e+03 1.783398e+04 2.645691e+02 7.978493e-01 -1.051368e+01
219            1.133103e+03 -4.433433e+03 1.782351e+04 8.685341e+02 -4.434231e+03 1.783403e+04 2.645692e+02 7.978324e-01 -1.051372e+01
220            1.133101e+03 -4.433431e+03 1.782357e+04 8.685320e+02 -4.434229e+03 1.783408e+04 2.645693e+02 7.978428e-01 -1.051378e+01