
                        S T E P       1


                                INCREMENT     1


 displacements (vx,vy,vz) for set ALL_NODES and time  0.1000000E+01

         1  2.456300E-02 -1.050138E-02  1.827528E-01
         2 -6.689817E-02  4.166861E-02  2.506702E-01
         3  2.448582E-02 -1.068546E-02  1.819029E-01
         4  2.467462E-02 -1.095038E-02  1.853784E-01
         5  2.485298E-02 -1.118218E-02  1.931708E-01
         6  2.482769E-02 -1.130927E-02  2.050811E-01
         7  2.447350E-02 -1.128396E-02  2.207488E-01
         8  2.372811E-02 -1.108382E-02  2.397618E-01
         9  2.257267E-02 -1.070335E-02  2.616680E-01
        10  2.101851E-02 -1.014886E-02  2.859880E-01
        11  1.909782E-02 -9.435132E-03  3.122272E-01
        12  1.685447E-02 -8.581900E-03  3.398829E-01
        13  1.435380E-02 -7.617814E-03  3.684477E-01
        14  1.168837E-02 -6.582616E-03  3.974147E-01
        15  8.956645E-03 -5.518335E-03  4.262758E-01
        16  6.257541E-03 -4.466982E-03  4.545194E-01
        17  3.686485E-03 -3.468787E-03  4.816306E-01
        18  1.330967E-03 -2.560119E-03  5.070974E-01
        19 -7.337054E-04 -1.771400E-03  5.304176E-01
        20 -2.446590E-03 -1.125538E-03  5.511098E-01
        21 -3.766009E-03 -6.351932E-04  5.687219E-01
        22 -4.677093E-03 -2.987759E-04  5.828425E-01
        23 -5.203026E-03 -9.496240E-05  5.931147E-01
        24 -5.417790E-03  2.260667E-05  5.992503E-01
        25 -5.445947E-03  1.250093E-04  6.010417E-01
        26 -5.453300E-03  3.033124E-04  5.983738E-01
        27 -5.629299E-03  6.595201E-04  5.912310E-01
        28 -6.160757E-03  1.292788E-03  5.796983E-01
        29 -7.203716E-03  2.284834E-03  5.639565E-01
        30 -8.859607E-03  3.687271E-03  5.442788E-01
        31 -1.117041E-02  5.518702E-03  5.210324E-01
        32 -1.414478E-02  7.777844E-03  4.946850E-01
        33 -1.778426E-02  1.045680E-02  4.658157E-01
        34 -2.207726E-02  1.353753E-02  4.351191E-01
        35 -2.699543E-02  1.698933E-02  4.034108E-01
        36 -3.247105E-02  2.075597E-02  3.716305E-01
        37 -3.840655E-02  2.475906E-02  3.408519E-01
        38 -4.464855E-02  2.888161E-02  3.122924E-01
        39 -5.097850E-02  3.295766E-02  2.873350E-01
        40 -5.709491E-02  3.674924E-02  2.675880E-01
        41 -6.253263E-02  3.986570E-02  2.547747E-01
        42  2.448100E-02 -1.056787E-02  1.818431E-01
        43  2.454983E-02 -1.079818E-02  1.830728E-01
        44  2.475200E-02 -1.105630E-02  1.887472E-01
        45  2.484161E-02 -1.124283E-02  1.986318E-01
        46  2.466077E-02 -1.129885E-02  2.124715E-01
        47  2.411618E-02 -1.118938E-02  2.298657E-01
        48  2.316790E-02 -1.090075E-02  2.503841E-01
        49  2.181286E-02 -1.043369E-02  2.735583E-01
        50  2.007335E-02 -9.799019E-03  2.989004E-01
        51  1.798783E-02 -9.014198E-03  3.259113E-01
        52  1.561116E-02 -8.103550E-03  3.540853E-01
        53  1.302260E-02 -7.101424E-03  3.829150E-01
        54  1.031801E-02 -6.048904E-03  4.118932E-01
        55  7.596406E-03 -4.988192E-03  4.405100E-01
        56  4.955335E-03 -3.960621E-03  4.682516E-01
        57  2.486632E-03 -3.004702E-03  4.946039E-01
        58  2.721047E-04 -2.154064E-03  5.190584E-01
        59 -1.619694E-03 -1.435615E-03  5.411224E-01
        60 -3.136979E-03 -8.674163E-04  5.603276E-01
        61 -4.250960E-03 -4.553065E-04  5.762409E-01
        62 -4.965350E-03 -1.880976E-04  5.884764E-01
        63 -5.328718E-03 -3.195945E-05  5.967100E-01
        64 -5.440721E-03  7.205246E-05  6.006927E-01
        65 -5.447311E-03  2.054716E-04  6.002621E-01
        66 -5.527224E-03  4.655139E-04  5.953525E-01
        67 -5.869975E-03  9.536108E-04  5.859987E-01
        68 -6.648284E-03  1.761014E-03  5.723341E-01
        69 -7.991996E-03  2.955095E-03  5.545853E-01
        70 -9.973368E-03  4.571324E-03  5.330721E-01
        71 -1.261764E-02  6.618324E-03  5.082111E-01
        72 -1.592976E-02  9.091414E-03  4.805251E-01
        73 -1.990509E-02  1.197786E-02  4.506507E-01
        74 -2.452439E-02  1.525379E-02  4.193424E-01
        75 -2.974085E-02  1.887655E-02  3.874775E-01
        76 -3.547376E-02  2.278012E-02  3.560617E-01
        77 -4.160070E-02  2.686881E-02  3.262401E-01
        78 -4.794195E-02  3.100532E-02  2.993108E-01
        79 -5.425236E-02  3.499754E-02  2.767693E-01
        80 -6.016646E-02  3.854294E-02  2.603567E-01
        81 -6.540649E-02  4.122832E-02  2.520738E-01
        82  0.000000E+00  0.000000E+00  0.000000E+00
        83  0.000000E+00  0.000000E+00  0.000000E+00
        84 -1.654361E-24  8.271806E-25  0.000000E+00
        85  1.654361E-24  0.000000E+00  0.000000E+00
        86  2.067952E-25 -4.135903E-25  0.000000E+00
        87  8.271806E-25  5.169879E-26  0.000000E+00
        88  4.963084E-24 -8.271806E-25  0.000000E+00
        89 -3.308722E-24  0.000000E+00  0.000000E+00
        90 -3.308722E-24  0.000000E+00  0.000000E+00
        91  3.308722E-24  1.654361E-24  0.000000E+00
        92 -9.926167E-24  0.000000E+00  0.000000E+00
        93  9.926167E-24 -8.271806E-25  0.000000E+00
        94  0.000000E+00  8.271806E-25  0.000000E+00
        95 -8.271806E-25  0.000000E+00  0.000000E+00
        96  0.000000E+00  0.000000E+00  0.000000E+00
        97  0.000000E+00  0.000000E+00  0.000000E+00
        98  0.000000E+00  0.000000E+00  0.000000E+00
        99  1.323489E-23 -3.308722E-24  0.000000E+00
       100  0.000000E+00 -3.308722E-24  0.000000E+00
       101  6.617445E-24  0.000000E+00  0.000000E+00
       102  6.617445E-24  0.000000E+00  0.000000E+00
       103 -6.617445E-24  0.000000E+00  0.000000E+00
       104 -3.308722E-24  0.000000E+00  0.000000E+00
       105  0.000000E+00  5.169879E-26  0.000000E+00
       106 -2.067952E-25  8.271806E-25  0.000000E+00
       107  0.000000E+00 -1.654361E-24  0.000000E+00
       108  0.000000E+00 -3.308722E-24  0.000000E+00
       109  0.000000E+00  0.000000E+00  0.000000E+00
       110  0.000000E+00 -3.308722E-24  0.000000E+00
       111  0.000000E+00  3.308722E-24  0.000000E+00
       112  6.617445E-24  0.000000E+00  0.000000E+00
       113  0.000000E+00 -1.654361E-24  0.000000E+00
       114  0.000000E+00  0.000000E+00  0.000000E+00
       115  3.308722E-24  8.271806E-25  0.000000E+00
       116 -5.169879E-26  0.000000E+00  0.000000E+00
       117  0.000000E+00  0.000000E+00  0.000000E+00
       118 -6.617445E-24  0.000000E+00  0.000000E+00
       119 -6.617445E-24  0.000000E+00  0.000000E+00
       120  0.000000E+00  0.000000E+00  0.000000E+00
       121  0.000000E+00  1.323489E-23  0.000000E+00
       122  0.000000E+00  0.000000E+00  0.000000E+00
       123  6.617445E-24  0.000000E+00  0.000000E+00
       124 -6.617445E-24  3.308722E-24  0.000000E+00
       125 -3.308722E-24 -3.308722E-24  0.000000E+00
       126  4.135903E-25  0.000000E+00  0.000000E+00
       127  9.926167E-24 -8.271806E-25  0.000000E+00
       128  1.323489E-23  0.000000E+00  0.000000E+00
       129  0.000000E+00 -3.308722E-24  0.000000E+00
       130 -2.646978E-23  0.000000E+00  0.000000E+00
       131  1.323489E-23  0.000000E+00  0.000000E+00
       132  0.000000E+00 -3.308722E-24  0.000000E+00
       133  0.000000E+00  1.654361E-24  0.000000E+00
       134  0.000000E+00  0.000000E+00  0.000000E+00
       135  6.617445E-24  0.000000E+00  0.000000E+00
       136  0.000000E+00  0.000000E+00  0.000000E+00
       137  1.323489E-23  0.000000E+00  0.000000E+00
       138 -1.323489E-23  0.000000E+00  0.000000E+00
       139  0.000000E+00  0.000000E+00  0.000000E+00
       140  2.646978E-23 -6.617445E-24  0.000000E+00
       141  0.000000E+00  0.000000E+00  0.000000E+00
       142  2.646978E-23  0.000000E+00  0.000000E+00
       143  0.000000E+00 -3.308722E-24  0.000000E+00
       144 -1.985233E-23  1.654361E-24  0.000000E+00
       145  0.000000E+00  4.135903E-25  0.000000E+00
       146  8.271806E-25  1.654361E-24  0.000000E+00
       147  0.000000E+00  0.000000E+00  0.000000E+00
       148  6.617445E-24  0.000000E+00  0.000000E+00
       149  6.617445E-24  0.000000E+00  0.000000E+00
       150  0.000000E+00  0.000000E+00  0.000000E+00
       151  9.926167E-24  0.000000E+00  0.000000E+00
       152  3.308722E-24  0.000000E+00  0.000000E+00
       153  8.271806E-25  4.135903E-25  0.000000E+00
       154  6.617445E-24 -1.654361E-24  0.000000E+00
       155  6.617445E-24  0.000000E+00  0.000000E+00
       156 -1.323489E-23  6.617445E-24  0.000000E+00
       157  1.323489E-23  0.000000E+00  0.000000E+00
       158  2.646978E-23  1.323489E-23  0.000000E+00
       159 -2.646978E-23  0.000000E+00  0.000000E+00
       160  5.293956E-23  2.646978E-23  0.000000E+00
       161  0.000000E+00  0.000000E+00  0.000000E+00
       162  1.058791E-22  1.058791E-22  0.000000E+00
       163 -6.559407E-02  3.978773E-02  2.491628E-01
       164 -6.271956E-02  3.737143E-02  2.396044E-01
       165 -5.919886E-02  3.462789E-02  2.222563E-01
       166 -5.554929E-02  3.183041E-02  1.986236E-01
       167 -5.206554E-02  2.915085E-02  1.701580E-01
       168 -4.892045E-02  2.669375E-02  1.381624E-01
       169 -4.622075E-02  2.452577E-02  1.038225E-01
       170 -4.401948E-02  2.268129E-02  6.821400E-02
       171 -4.232175E-02  2.116558E-02  3.231439E-02
       172 -4.110963E-02  1.997024E-02 -2.997021E-03
       173 -4.034945E-02  1.907745E-02 -3.693742E-02
       174 -3.998689E-02  1.845697E-02 -6.881890E-02
       175 -3.995835E-02  1.807306E-02 -9.804689E-02
       176 -4.019526E-02  1.788703E-02 -1.241170E-01
       177 -4.062183E-02  1.785600E-02 -1.466111E-01
       178 -4.115418E-02  1.793236E-02 -1.651931E-01
       179 -4.170409E-02  1.806612E-02 -1.796069E-01
       180 -4.218559E-02  1.820901E-02 -1.896774E-01
       181 -4.251243E-02  1.831333E-02 -1.953069E-01
       182 -4.259472E-02  1.832994E-02 -1.964739E-01
       183 -4.233830E-02  1.820799E-02 -1.932308E-01
       184 -4.164831E-02  1.789654E-02 -1.857048E-01
       185 -4.043675E-02  1.734847E-02 -1.741010E-01
       186 -3.863473E-02  1.652628E-02 -1.587010E-01
       187 -3.620991E-02  1.541008E-02 -1.398580E-01
       188 -3.316400E-02  1.399798E-02 -1.179930E-01
       189 -2.952722E-02  1.230385E-02 -9.358743E-02
       190 -2.534978E-02  1.035363E-02 -6.717675E-02
       191 -2.070106E-02  8.184545E-03 -3.934193E-02
       192 -1.567295E-02  5.845922E-03 -1.070045E-02
       193 -1.038241E-02  3.399736E-03  1.810310E-02
       194 -4.961117E-03  9.163170E-04  4.640730E-02
       195  4.398551E-04 -1.524736E-03  7.354819E-02
       196  5.658194E-03 -3.838239E-03  9.887153E-02
       197  1.052645E-02 -5.936572E-03  1.217498E-01
       198  1.488593E-02 -7.735284E-03  1.416018E-01
       199  1.858591E-02 -9.153826E-03  1.579192E-01
       200  2.148847E-02 -1.011880E-02  1.703018E-01
       201  2.348590E-02 -1.057249E-02  1.785225E-01
       202 -6.688164E-02  4.115413E-02  2.506549E-01
       203 -6.443207E-02  3.876525E-02  2.452987E-01
       204 -6.113568E-02  3.611907E-02  2.318034E-01
       205 -5.747597E-02  3.329811E-02  2.111020E-01
       206 -5.386957E-02  3.053262E-02  1.849004E-01
       207 -5.052816E-02  2.794575E-02  1.545186E-01
       208 -4.758807E-02  2.562087E-02  1.212151E-01
       209 -4.512616E-02  2.360645E-02  8.611603E-02
       210 -4.316989E-02  2.192125E-02  5.024876E-02
       211 -4.171167E-02  2.056292E-02  1.454149E-02
       212 -4.072488E-02  1.951784E-02 -2.017478E-02
       213 -4.016488E-02  1.876152E-02 -5.316480E-02
       214 -3.997223E-02  1.826067E-02 -8.378756E-02
       215 -4.008049E-02  1.797785E-02 -1.114939E-01
       216 -4.041717E-02  1.787207E-02 -1.358231E-01
       217 -4.090212E-02  1.789789E-02 -1.563985E-01
       218 -4.144899E-02  1.800629E-02 -1.729238E-01
       219 -4.197055E-02  1.814810E-02 -1.851837E-01
       220 -4.238064E-02  1.827527E-02 -1.930421E-01
       221 -4.259107E-02  1.833932E-02 -1.964396E-01
       222 -4.250955E-02  1.829011E-02 -1.953918E-01
       223 -4.204116E-02  1.807650E-02 -1.899883E-01
       224 -4.109396E-02  1.764916E-02 -1.803949E-01
       225 -3.958892E-02  1.696542E-02 -1.668553E-01
       226 -3.747478E-02  1.599623E-02 -1.496872E-01
       227 -3.473610E-02  1.473061E-02 -1.292786E-01
       228 -3.138896E-02  1.317460E-02 -1.060815E-01
       229 -2.747374E-02  1.134824E-02 -8.060543E-02
       230 -2.305039E-02  9.283181E-03 -5.340949E-02
       231 -1.819965E-02  7.022768E-03 -2.509392E-02
       232 -1.302613E-02  4.622756E-03  3.709041E-03
       233 -7.654436E-03  2.149465E-03  3.234490E-02
       234 -2.226305E-03 -3.219433E-04  6.014945E-02
       235  3.101115E-03 -2.708815E-03  8.646183E-02
       236  8.162339E-03 -4.924425E-03  1.106388E-01
       237  1.279372E-02 -6.882419E-03  1.320735E-01
       238  1.683977E-02 -8.499869E-03  1.502176E-01
       239  2.015504E-02 -9.699194E-03  1.646123E-01
       240  2.261407E-02 -1.041342E-02  1.749335E-01
       241  2.414406E-02 -1.060085E-02  1.811066E-01
       242  0.000000E+00  0.000000E+00  4.235165E-22
       243 -1.323489E-23 -1.323489E-23  0.000000E+00
       244  1.323489E-23  6.617445E-24  0.000000E+00
       245  1.323489E-23  0.000000E+00  0.000000E+00
       246 -3.308722E-24 -1.654361E-24  0.000000E+00
       247  1.654361E-24  0.000000E+00  0.000000E+00
       248 -1.654361E-24  0.000000E+00  0.000000E+00
       249  4.135903E-25  0.000000E+00  0.000000E+00
       250 -2.067952E-25  0.000000E+00  0.000000E+00
       251  0.000000E+00  0.000000E+00  0.000000E+00
       252 -2.584939E-26  5.169879E-26  0.000000E+00
       253  0.000000E+00  0.000000E+00  0.000000E+00
       254 -1.033976E-25 -7.754818E-26  0.000000E+00
       255  0.000000E+00  1.292470E-26  0.000000E+00
       256 -4.135903E-25  1.033976E-25  0.000000E+00
       257  0.000000E+00  0.000000E+00  0.000000E+00
       258 -1.654361E-24 -2.067952E-25  0.000000E+00
       259 -8.271806E-25  0.000000E+00  0.000000E+00
       260  1.654361E-24 -8.271806E-25  0.000000E+00
       261 -8.271806E-25 -4.135903E-25  0.000000E+00
       262  0.000000E+00  0.000000E+00  0.000000E+00
       263  0.000000E+00  0.000000E+00  0.000000E+00
       264  0.000000E+00  0.000000E+00  0.000000E+00
       265  3.308722E-24  0.000000E+00  0.000000E+00
       266 -3.308722E-24  0.000000E+00  0.000000E+00
       267 -3.308722E-24  0.000000E+00  0.000000E+00
       268  2.481542E-24  4.135903E-25  0.000000E+00
       269  0.000000E+00  4.135903E-25  0.000000E+00
       270 -4.135903E-25  0.000000E+00  0.000000E+00
       271  5.169879E-26 -2.584939E-26  0.000000E+00
       272  0.000000E+00  2.067952E-25  0.000000E+00
       273  0.000000E+00  0.000000E+00  0.000000E+00
       274  0.000000E+00  0.000000E+00  0.000000E+00
       275 -1.654361E-24  0.000000E+00  0.000000E+00
       276 -3.308722E-24  0.000000E+00  0.000000E+00
       277  9.926167E-24  0.000000E+00  0.000000E+00
       278 -9.926167E-24 -3.308722E-24  0.000000E+00
       279  0.000000E+00  0.000000E+00  0.000000E+00
       280 -6.617445E-24 -1.654361E-24  0.000000E+00
       281  1.058791E-22 -1.058791E-22  0.000000E+00
       282  0.000000E+00  0.000000E+00  0.000000E+00
       283  5.293956E-23  0.000000E+00  0.000000E+00
       284  0.000000E+00  0.000000E+00  0.000000E+00
       285 -2.646978E-23  1.323489E-23  0.000000E+00
       286  0.000000E+00  0.000000E+00  0.000000E+00
       287  1.323489E-23  0.000000E+00  0.000000E+00
       288  1.323489E-23 -6.617445E-24  0.000000E+00
       289  0.000000E+00  3.308722E-24  0.000000E+00
       290 -1.654361E-24  0.000000E+00  0.000000E+00
       291  8.271806E-25  8.271806E-25  0.000000E+00
       292 -4.135903E-25 -4.135903E-25  0.000000E+00
       293 -2.584939E-26  0.000000E+00  0.000000E+00
       294  0.000000E+00 -6.462349E-27  0.000000E+00
       295  2.067952E-25  1.292470E-26  0.000000E+00
       296  0.000000E+00 -1.033976E-25  0.000000E+00
       297  0.000000E+00  0.000000E+00  0.000000E+00
       298 -1.654361E-24  0.000000E+00  0.000000E+00
       299  3.308722E-24 -8.271806E-25  0.000000E+00
       300  3.308722E-24  0.000000E+00  0.000000E+00
       301 -9.926167E-24 -1.654361E-24  0.000000E+00
       302  3.308722E-24 -1.654361E-24  0.000000E+00
       303 -6.617445E-24  0.000000E+00  0.000000E+00
       304  6.617445E-24  0.000000E+00  0.000000E+00
       305  6.617445E-24  0.000000E+00  0.000000E+00
       306  6.617445E-24  0.000000E+00  0.000000E+00
       307  1.323489E-23  0.000000E+00  0.000000E+00
       308  6.617445E-24  3.308722E-24  0.000000E+00
       309  0.000000E+00  3.308722E-24  0.000000E+00
       310 -6.617445E-24 -3.308722E-24  0.000000E+00
       311  6.617445E-24  0.000000E+00  0.000000E+00
       312 -6.617445E-24  0.000000E+00  0.000000E+00
       313  9.926167E-24  0.000000E+00  0.000000E+00
       314  0.000000E+00  0.000000E+00  0.000000E+00
       315  0.000000E+00  0.000000E+00  0.000000E+00
       316  0.000000E+00  0.000000E+00  0.000000E+00
       317 -3.308722E-24  0.000000E+00  0.000000E+00
       318  0.000000E+00  0.000000E+00  0.000000E+00
       319  1.323489E-23  0.000000E+00  0.000000E+00
       320  5.293956E-23  0.000000E+00  0.000000E+00
       321 -1.777299E-03 -4.630446E-04  1.407594E-04
       322 -4.092642E-03 -4.780790E-04  7.343224E-04
       323 -6.664687E-03 -1.793025E-04  1.531244E-03
       324 -9.481775E-03  4.636665E-04  2.509034E-03
       325 -1.251897E-02  1.391124E-03  3.733067E-03
       326 -1.573938E-02  2.581244E-03  5.173722E-03
       327 -1.910055E-02  3.993752E-03  6.828181E-03
       328 -2.257211E-02  5.598229E-03  8.692679E-03
       329 -2.612977E-02  7.370093E-03  1.077792E-02
       330 -2.975742E-02  9.291341E-03  1.310989E-02
       331 -3.344370E-02  1.135056E-02  1.573120E-02
       332 -3.717836E-02  1.353961E-02  1.870181E-02
       333 -4.094669E-02  1.584950E-02  2.209415E-02
       334 -4.472594E-02  1.826634E-02  2.598359E-02
       335 -4.848425E-02  2.076942E-02  3.043857E-02
       336 -5.218155E-02  2.333070E-02  3.551206E-02
       337 -5.577271E-02  2.591643E-02  4.123595E-02
       338 -5.921079E-02  2.848938E-02  4.761905E-02
       339 -6.244980E-02  3.101107E-02  5.464788E-02
       340 -6.544653E-02  3.344325E-02  6.228863E-02
       341 -6.816331E-02  3.575011E-02  7.049059E-02
       342 -7.056803E-02  3.789892E-02  7.919000E-02
       343 -7.263551E-02  3.986110E-02  8.831448E-02
       344 -7.434737E-02  4.161251E-02  9.778692E-02
       345 -7.569232E-02  4.313374E-02  1.075280E-01
       346 -7.666613E-02  4.441040E-02  1.174599E-01
       347 -7.727113E-02  4.543287E-02  1.275074E-01
       348 -7.751653E-02  4.619656E-02  1.376003E-01
       349 -7.741807E-02  4.670181E-02  1.476757E-01
       350 -7.699799E-02  4.695374E-02  1.576777E-01
       351 -7.628575E-02  4.696276E-02  1.675599E-01
       352 -7.531847E-02  4.674468E-02  1.772879E-01
       353 -7.414187E-02  4.632127E-02  1.868401E-01
       354 -7.281284E-02  4.572165E-02  1.962091E-01
       355 -7.140257E-02  4.498426E-02  2.054043E-01
       356 -7.000072E-02  4.416009E-02  2.144522E-01
       357 -6.872136E-02  4.331839E-02  2.233960E-01
       358 -6.769385E-02  4.254838E-02  2.323179E-01
       359 -6.704999E-02  4.195114E-02  2.413545E-01
       360 -1.802054E-03  4.573180E-04 -9.211411E-03
       361 -4.040591E-03  1.121150E-03 -2.093015E-02
       362 -6.216212E-03  1.770754E-03 -3.298990E-02
       363 -8.117550E-03  2.291848E-03 -4.438878E-02
       364 -9.699487E-03  2.684226E-03 -5.513019E-02
       365 -1.081489E-02  2.879362E-03 -6.447318E-02
       366 -1.141750E-02  2.865093E-03 -7.220550E-02
       367 -1.150169E-02  2.647664E-03 -7.824821E-02
       368 -1.107224E-02  2.234806E-03 -8.252465E-02
       369 -1.016073E-02  1.646837E-03 -8.506009E-02
       370 -8.819033E-03  9.121095E-04 -8.595167E-02
       371 -7.106763E-03  6.017762E-05 -8.530918E-02
       372 -5.086771E-03 -8.798165E-04 -8.324941E-02
       373 -2.830475E-03 -1.875446E-03 -7.992991E-02
       374 -4.105968E-04 -2.895438E-03 -7.551658E-02
       375  2.106596E-03 -3.913081E-03 -7.014760E-02
       376  4.657490E-03 -4.903662E-03 -6.396583E-02
       377  7.185562E-03 -5.846594E-03 -5.709165E-02
       378  9.641511E-03 -6.725242E-03 -4.962910E-02
       379  1.198006E-02 -7.524929E-03 -4.168668E-02
       380  1.416600E-02 -8.236025E-03 -3.334250E-02
       381  1.617010E-02 -8.851607E-03 -2.466961E-02
       382  1.797307E-02 -9.369572E-03 -1.571196E-02
       383  1.956205E-02 -9.790268E-03 -6.503036E-03
       384  2.093290E-02 -1.011822E-02  2.948288E-03
       385  2.208363E-02 -1.035785E-02  1.262087E-02
       386  2.301814E-02 -1.051606E-02  2.250736E-02
       387  2.374319E-02 -1.060033E-02  3.259572E-02
       388  2.427031E-02 -1.061995E-02  4.288617E-02
       389  2.461702E-02 -1.058679E-02  5.339328E-02
       390  2.480475E-02 -1.051358E-02  6.413899E-02
       391  2.486139E-02 -1.041583E-02  7.516611E-02
       392  2.481682E-02 -1.030834E-02  8.651457E-02
       393  2.470665E-02 -1.020791E-02  9.825587E-02
       394  2.457126E-02 -1.013191E-02  1.104880E-01
       395  2.444958E-02 -1.009410E-02  1.233282E-01
       396  2.437335E-02 -1.010437E-02  1.369172E-01
       397  2.436919E-02 -1.017659E-02  1.514302E-01
       398  2.445643E-02 -1.032507E-02  1.669078E-01
       399  2.452290E-02 -1.060246E-02  1.676755E-01
       400  2.459299E-02 -1.055372E-02  1.539448E-01
       401  2.474635E-02 -1.057205E-02  1.410681E-01
       402  2.496208E-02 -1.064709E-02  1.290213E-01
       403  2.521305E-02 -1.076408E-02  1.176173E-01
       404  2.546880E-02 -1.091082E-02  1.067246E-01
       405  2.569387E-02 -1.107343E-02  9.626307E-02
       406  2.585249E-02 -1.123644E-02  8.618535E-02
       407  2.591268E-02 -1.138503E-02  7.645943E-02
       408  2.584745E-02 -1.150603E-02  6.707828E-02
       409  2.563209E-02 -1.158621E-02  5.803457E-02
       410  2.524710E-02 -1.161434E-02  4.932769E-02
       411  2.467643E-02 -1.158000E-02  4.095948E-02
       412  2.390882E-02 -1.147463E-02  3.293250E-02
       413  2.293733E-02 -1.129120E-02  2.525816E-02
       414  2.175813E-02 -1.102365E-02  1.794395E-02
       415  2.037174E-02 -1.066747E-02  1.099696E-02
       416  1.878214E-02 -1.021931E-02  4.422825E-03
       417  1.699963E-02 -9.678474E-03 -1.772641E-03
       418  1.504145E-02 -9.047533E-03 -7.570423E-03
       419  1.293198E-02 -8.332133E-03 -1.294854E-02
       420  1.070172E-02 -7.540968E-03 -1.788475E-02
       421  8.388709E-03 -6.686262E-03 -2.234885E-02
       422  6.035670E-03 -5.782485E-03 -2.631062E-02
       423  3.691572E-03 -4.847640E-03 -2.973660E-02
       424  1.410453E-03 -3.902246E-03 -3.258869E-02
       425 -7.494113E-04 -2.969751E-03 -3.482307E-02
       426 -2.726039E-03 -2.076063E-03 -3.639252E-02
       427 -4.458401E-03 -1.247517E-03 -3.725456E-02
       428 -5.889957E-03 -5.091981E-04 -3.736768E-02
       429 -6.967951E-03  1.144439E-04 -3.670121E-02
       430 -7.647909E-03  6.019490E-04 -3.523825E-02
       431 -7.897668E-03  9.363484E-04 -3.294971E-02
       432 -7.706262E-03  1.111019E-03 -2.985159E-02
       433 -7.076629E-03  1.125681E-03 -2.598299E-02
       434 -6.024501E-03  9.828739E-04 -2.122106E-02
       435 -4.672715E-03  7.431655E-04 -1.609775E-02
       436 -3.026933E-03  4.053299E-04 -1.002280E-02
       437 -1.289664E-03  6.408062E-05 -4.114449E-03
       438  2.487536E-02 -1.098245E-02  1.742110E-01
       439  2.509352E-02 -1.103835E-02  1.631936E-01
       440  2.537985E-02 -1.114898E-02  1.527237E-01
       441  2.571464E-02 -1.130680E-02  1.428505E-01
       442  2.607260E-02 -1.149717E-02  1.334097E-01
       443  2.642609E-02 -1.170726E-02  1.243139E-01
       444  2.674312E-02 -1.192374E-02  1.155460E-01
       445  2.699138E-02 -1.213280E-02  1.071207E-01
       446  2.714180E-02 -1.232149E-02  9.905730E-02
       447  2.716945E-02 -1.247806E-02  9.138912E-02
       448  2.705174E-02 -1.259107E-02  8.414697E-02
       449  2.677041E-02 -1.265053E-02  7.735334E-02
       450  2.631037E-02 -1.264725E-02  7.102783E-02
       451  2.566067E-02 -1.257345E-02  6.517801E-02
       452  2.481416E-02 -1.242262E-02  5.981341E-02
       453  2.376677E-02 -1.218935E-02  5.493665E-02
       454  2.251824E-02 -1.186950E-02  5.054405E-02
       455  2.107204E-02 -1.146060E-02  4.662938E-02
       456  1.943704E-02 -1.096246E-02  4.317335E-02
       457  1.762845E-02 -1.037798E-02  4.015476E-02
       458  1.566736E-02 -9.712454E-03  3.753847E-02
       459  1.358070E-02 -8.974124E-03  3.527635E-02
       460  1.140186E-02 -8.174022E-03  3.331597E-02
       461  9.168625E-03 -7.325305E-03  3.159534E-02
       462  6.924669E-03 -6.444286E-03  3.004687E-02
       463  4.718032E-03 -5.549208E-03  2.859927E-02
       464  2.600796E-03 -4.660855E-03  2.717474E-02
       465  6.279310E-04 -3.801386E-03  2.569117E-02
       466 -1.145861E-03 -2.992919E-03  2.407598E-02
       467 -2.669220E-03 -2.256598E-03  2.226739E-02
       468 -3.893602E-03 -1.612713E-03  2.021303E-02
       469 -4.777639E-03 -1.077873E-03  1.787414E-02
       470 -5.291532E-03 -6.630734E-04  1.523692E-02
       471 -5.418292E-03 -3.736930E-04  1.237911E-02
       472 -5.151587E-03 -2.088660E-04  9.439901E-03
       473 -4.515296E-03 -1.500258E-04  6.410652E-03
       474 -3.587323E-03 -1.525266E-04  3.457444E-03
       475 -2.324095E-03 -2.393168E-04  2.385269E-03
       476 -9.479913E-04 -2.841543E-04  1.331411E-03
       477  2.514056E-02 -1.129592E-02  1.859505E-01
       478  2.543779E-02 -1.142718E-02  1.783554E-01
       479  2.579437E-02 -1.160458E-02  1.708592E-01
       480  2.619035E-02 -1.182055E-02  1.636199E-01
       481  2.660234E-02 -1.206048E-02  1.565256E-01
       482  2.700464E-02 -1.231121E-02  1.495571E-01
       483  2.736720E-02 -1.255985E-02  1.427798E-01
       484  2.765939E-02 -1.279365E-02  1.362809E-01
       485  2.785367E-02 -1.300096E-02  1.301395E-01
       486  2.792600E-02 -1.317105E-02  1.244343E-01
       487  2.785467E-02 -1.329359E-02  1.192314E-01
       488  2.762193E-02 -1.335945E-02  1.145782E-01
       489  2.721304E-02 -1.336029E-02  1.105081E-01
       490  2.661722E-02 -1.328906E-02  1.070348E-01
       491  2.582713E-02 -1.313978E-02  1.041654E-01
       492  2.483857E-02 -1.290766E-02  1.018951E-01
       493  2.365091E-02 -1.258924E-02  1.002105E-01
       494  2.226726E-02 -1.218290E-02  9.908687E-02
       495  2.069584E-02 -1.168935E-02  9.847580E-02
       496  1.895081E-02 -1.111218E-02  9.830797E-02
       497  1.705179E-02 -1.045720E-02  9.848716E-02
       498  1.502416E-02 -9.733057E-03  9.888884E-02
       499  1.289913E-02 -8.950787E-03  9.937309E-02
       500  1.071238E-02 -8.123537E-03  9.977930E-02
       501  8.505157E-03 -7.267189E-03  9.992963E-02
       502  6.322858E-03 -6.399321E-03  9.963451E-02
       503  4.214901E-03 -5.539540E-03  9.868614E-02
       504  2.233261E-03 -4.708034E-03  9.686879E-02
       505  4.299863E-04 -3.924633E-03  9.399478E-02
       506 -1.145536E-03 -3.207998E-03  8.990094E-02
       507 -2.446833E-03 -2.574864E-03  8.443280E-02
       508 -3.433405E-03 -2.038280E-03  7.751028E-02
       509 -4.075136E-03 -1.605464E-03  6.914473E-02
       510 -4.354278E-03 -1.276758E-03  5.941218E-02
       511 -4.262643E-03 -1.046362E-03  4.851681E-02
       512 -3.819753E-03 -8.879164E-04  3.674269E-02
       513 -3.074233E-03 -7.705270E-04  2.521381E-02
       514 -2.007683E-03 -6.893112E-04  1.530525E-02
       515 -8.157649E-04 -5.017920E-04  5.604303E-03
       516  2.510037E-02 -1.145414E-02  2.023106E-01
       517  2.538980E-02 -1.161873E-02  1.985962E-01
       518  2.574115E-02 -1.182725E-02  1.944555E-01
       519  2.613144E-02 -1.206908E-02  1.901504E-01
       520  2.653798E-02 -1.232899E-02  1.856461E-01
       521  2.693525E-02 -1.259329E-02  1.810127E-01
       522  2.729295E-02 -1.284892E-02  1.764112E-01
       523  2.758036E-02 -1.308353E-02  1.720100E-01
       524  2.776988E-02 -1.328605E-02  1.679514E-01
       525  2.783726E-02 -1.344619E-02  1.643593E-01
       526  2.776077E-02 -1.355420E-02  1.613318E-01
       527  2.752256E-02 -1.360148E-02  1.589385E-01
       528  2.710789E-02 -1.358022E-02  1.572242E-01
       529  2.650598E-02 -1.348395E-02  1.562070E-01
       530  2.570942E-02 -1.330725E-02  1.558910E-01
       531  2.471403E-02 -1.304599E-02  1.562631E-01
       532  2.351911E-02 -1.269748E-02  1.572976E-01
       533  2.212782E-02 -1.226112E-02  1.589477E-01
       534  2.054853E-02 -1.173876E-02  1.611304E-01
       535  1.879552E-02 -1.113512E-02  1.637264E-01
       536  1.688852E-02 -1.045717E-02  1.665765E-01
       537  1.485321E-02 -9.714734E-03  1.694799E-01
       538  1.272090E-02 -8.919853E-03  1.722072E-01
       539  1.052762E-02 -8.086756E-03  1.744980E-01
       540  8.314919E-03 -7.232120E-03  1.760644E-01
       541  6.128587E-03 -6.374175E-03  1.765926E-01
       542  4.018564E-03 -5.532760E-03  1.757481E-01
       543  2.037165E-03 -4.727763E-03  1.731939E-01
       544  2.367425E-04 -3.978183E-03  1.686190E-01
       545 -1.332812E-03 -3.301475E-03  1.617679E-01
       546 -2.624712E-03 -2.712371E-03  1.524217E-01
       547 -3.598161E-03 -2.220804E-03  1.404226E-01
       548 -4.223314E-03 -1.830662E-03  1.258228E-01
       549 -4.482185E-03 -1.538824E-03  1.088067E-01
       550 -4.366306E-03 -1.331976E-03  8.954004E-02
       551 -3.897470E-03 -1.177284E-03  6.867837E-02
       552 -3.120907E-03 -1.046799E-03  4.814583E-02
       553 -2.030460E-03 -9.073416E-04  2.902712E-02
       554 -8.026836E-04 -6.135745E-04  1.007762E-02
       555  2.463254E-02 -1.140847E-02  2.226721E-01
       556  2.482884E-02 -1.156227E-02  2.230841E-01
       557  2.510128E-02 -1.176417E-02  2.225062E-01
       558  2.542202E-02 -1.199850E-02  2.212881E-01
       559  2.576721E-02 -1.224861E-02  2.194895E-01
       560  2.610930E-02 -1.249972E-02  2.172865E-01
       561  2.641557E-02 -1.273793E-02  2.149451E-01
       562  2.665337E-02 -1.295046E-02  2.127188E-01